 Entering Gaussian System, Link 0=g16
 Input=addpoly_chair.com
 Output=addpoly_chair.log
 Initial command:
 /usr/local/gaussian16c02/g16/l1.exe "/scr/Gau-837341.inp" -scrdir="/scr/"
 Entering Link 1 = /usr/local/gaussian16c02/g16/l1.exe PID=    837342.
  
 Copyright (c) 1988-2021, Gaussian, Inc.  All Rights Reserved.
  
 This is part of the Gaussian(R) 16 program.  It is based on
 the Gaussian(R) 09 system (copyright 2009, Gaussian, Inc.),
 the Gaussian(R) 03 system (copyright 2003, Gaussian, Inc.),
 the Gaussian(R) 98 system (copyright 1998, Gaussian, Inc.),
 the Gaussian(R) 94 system (copyright 1995, Gaussian, Inc.),
 the Gaussian 92(TM) system (copyright 1992, Gaussian, Inc.),
 the Gaussian 90(TM) system (copyright 1990, Gaussian, Inc.),
 the Gaussian 88(TM) system (copyright 1988, Gaussian, Inc.),
 the Gaussian 86(TM) system (copyright 1986, Carnegie Mellon
 University), and the Gaussian 82(TM) system (copyright 1983,
 Carnegie Mellon University). Gaussian is a federally registered
 trademark of Gaussian, Inc.
  
 This software contains proprietary and confidential information,
 including trade secrets, belonging to Gaussian, Inc.
  
 This software is provided under written license and may be
 used, copied, transmitted, or stored only in accord with that
 written license.
  
 The following legend is applicable only to US Government
 contracts under FAR:
  
                    RESTRICTED RIGHTS LEGEND
  
 Use, reproduction and disclosure by the US Government is
 subject to restrictions as set forth in subparagraphs (a)
 and (c) of the Commercial Computer Software - Restricted
 Rights clause in FAR 52.227-19.
  
 Gaussian, Inc.
 340 Quinnipiac St., Bldg. 40, Wallingford CT 06492
  
  
 ---------------------------------------------------------------
 Warning -- This program may not be used in any manner that
 competes with the business of Gaussian, Inc. or will provide
 assistance to any competitor of Gaussian, Inc.  The licensee
 of this program is prohibited from giving any competitor of
 Gaussian, Inc. access to this program.  By using this program,
 the user acknowledges that Gaussian, Inc. is engaged in the
 business of creating and licensing software in the field of
 computational chemistry and represents and warrants to the
 licensee that it is not a competitor of Gaussian, Inc. and that
 it will not use this program in any manner prohibited above.
 ---------------------------------------------------------------
  

 Cite this work as:
 Gaussian 16, Revision C.02,
 M. J. Frisch, G. W. Trucks, H. B. Schlegel, G. E. Scuseria, 
 M. A. Robb, J. R. Cheeseman, G. Scalmani, V. Barone, 
 G. A. Petersson, H. Nakatsuji, X. Li, M. Caricato, A. V. Marenich, 
 J. Bloino, B. G. Janesko, R. Gomperts, B. Mennucci, H. P. Hratchian, 
 J. V. Ortiz, A. F. Izmaylov, J. L. Sonnenberg, D. Williams-Young, 
 F. Ding, F. Lipparini, F. Egidi, J. Goings, B. Peng, A. Petrone, 
 T. Henderson, D. Ranasinghe, V. G. Zakrzewski, J. Gao, N. Rega, 
 G. Zheng, W. Liang, M. Hada, M. Ehara, K. Toyota, R. Fukuda, 
 J. Hasegawa, M. Ishida, T. Nakajima, Y. Honda, O. Kitao, H. Nakai, 
 T. Vreven, K. Throssell, J. A. Montgomery, Jr., J. E. Peralta, 
 F. Ogliaro, M. J. Bearpark, J. J. Heyd, E. N. Brothers, K. N. Kudin, 
 V. N. Staroverov, T. A. Keith, R. Kobayashi, J. Normand, 
 K. Raghavachari, A. P. Rendell, J. C. Burant, S. S. Iyengar, 
 J. Tomasi, M. Cossi, J. M. Millam, M. Klene, C. Adamo, R. Cammi, 
 J. W. Ochterski, R. L. Martin, K. Morokuma, O. Farkas, 
 J. B. Foresman, and D. J. Fox, Gaussian, Inc., Wallingford CT, 2019.
 
 ******************************************
 Gaussian 16:  ES64L-G16RevC.02  7-Dec-2021
                 9-Dec-2025 
 ******************************************
 %chk=addpoly_chair
 %mem=4GB
 %nproc=32
 Will use up to   32 processors via shared memory.
 ----------------------------------------------------------------------
 # opt=(maxstep=5) B3LYP/6-31G** SCF=(XQC,MaxCycle=200,noincore) Int=(G
 rid=UltraFine)
 ----------------------------------------------------------------------
 1/8=5,18=20,19=15,26=4,38=1/1,3;
 2/9=110,12=2,17=6,18=5,40=1/2;
 3/5=1,6=6,7=101,11=2,25=1,30=1,71=1,74=-5,75=-5/1,2,3;
 4//1;
 5/5=4,7=200,8=3,13=1,38=5/2,8;
 6/7=2,8=2,9=2,10=2,28=1/1;
 7//1,2,3,16;
 1/8=5,18=20,19=15,26=4/3(2);
 2/9=110/2;
 99//99;
 2/9=110/2;
 3/5=1,6=6,7=101,11=2,25=1,30=1,71=1,74=-5,75=-5/1,2,3;
 4/5=5,16=3,69=1/1;
 5/5=4,7=200,8=3,13=1,38=5/2,8;
 7//1,2,3,16;
 1/8=5,18=20,19=15,26=4/3(-5);
 2/9=110/2;
 6/7=2,8=2,9=2,10=2,19=2,28=1/1;
 99/9=1/99;
 -----------------
 m2g_addpoly_chair
 -----------------
 Symbolic Z-matrix:
 Charge =  0 Multiplicity = 1
 C                    -5.1298    1.21      0.0675 
 C                    -3.7167    0.5983    0.0643 
 C                    -3.6386   -0.9577    0.1204 
 C                    -2.8367   -1.2984   -1.1643 
 C                    -1.3462   -0.8741   -1.032 
 C                    -1.4343    0.6813   -1.1024 
 C                    -2.9606    0.9259   -1.251 
 C                    -3.3466   -0.2471   -2.1303 
 C                    -0.7498    1.504     0.0184 
 C                     0.7868    1.5802   -0.1542 
 C                     1.5556    0.959     1.0339 
 C                     1.5935   -0.5916    1.1673 
 C                     0.9388   -1.434     0.0419 
 C                    -0.602    -1.5109    0.1695 
 C                     3.1048   -0.8654    1.3955 
 C                     3.488     0.3497    2.2274 
 C                     3.0551    1.3576    1.1771 
 C                     3.9778    0.9089    0.0097 
 C                     3.9169   -0.6358    0.0921 
 C                     5.3117   -1.2743    0.1647 
 C                     3.6993    1.4883   -1.3844 
 C                    -4.9835   -1.7077    0.16 
 H                    -5.0541    2.3171    0.0183 
 H                    -5.7343    0.8691   -0.7975 
 H                    -5.6572    0.9507    1.0091 
 H                    -3.2014    1.0274    0.9462 
 H                    -3.0981   -1.2706    1.0349 
 H                    -2.965    -2.3422   -1.5259 
 H                    -0.8383   -1.2359   -1.9565 
 H                    -0.9799    1.0107   -2.0665 
 H                    -3.2049    1.9177   -1.6908 
 H                    -4.4374   -0.3138   -2.3317 
 H                    -2.8116   -0.2565   -3.1089 
 H                    -1.0193    1.1285    1.0243 
 H                    -1.1508    2.5404   -0.032 
 H                     1.0725    2.6529   -0.2193 
 H                     1.0813    1.1238   -1.1102 
 H                     1.061     1.3616    1.9497 
 H                     1.0882   -0.8727    2.121 
 H                     1.3379   -2.4692    0.1235 
 H                     1.2354   -1.0781   -0.9637 
 H                    -0.8862   -2.5859    0.2058 
 H                    -0.9396   -1.082     1.1321 
 H                     3.3039   -1.8374    1.8977 
 H                     4.5734    0.3993    2.4724 
 H                     2.9147    0.4278    3.1812 
 H                     3.2102    2.4135    1.4879 
 H                     5.0028    1.2623    0.2757 
 H                     3.4152   -1.08     -0.7893 
 H                     5.8873   -0.9045    1.0388 
 H                     5.2158   -2.3779    0.2448 
 H                     5.8796   -1.0389   -0.7603 
 H                     3.0154    0.8524   -1.9791 
 H                     3.3014    2.5215   -1.3066 
 H                     4.6504    1.5347   -1.9567 
 H                    -4.7963   -2.8023    0.1847 
 H                    -5.5429   -1.4419    1.0812 
 H                    -5.6128   -1.4879   -0.726 
 

 GradGradGradGradGradGradGradGradGradGradGradGradGradGradGradGradGradGrad
 Berny optimization.
 Initialization pass.
                           ----------------------------
                           !    Initial Parameters    !
                           ! (Angstroms and Degrees)  !
 --------------------------                            --------------------------
 ! Name  Definition              Value          Derivative Info.                !
 --------------------------------------------------------------------------------
 ! R1    R(1,2)                  1.5398         estimate D2E/DX2                !
 ! R2    R(1,23)                 1.1108         estimate D2E/DX2                !
 ! R3    R(1,24)                 1.109          estimate D2E/DX2                !
 ! R4    R(1,25)                 1.11           estimate D2E/DX2                !
 ! R5    R(2,3)                  1.559          estimate D2E/DX2                !
 ! R6    R(2,7)                  1.5521         estimate D2E/DX2                !
 ! R7    R(2,26)                 1.1079         estimate D2E/DX2                !
 ! R8    R(3,4)                  1.5523         estimate D2E/DX2                !
 ! R9    R(3,22)                 1.5404         estimate D2E/DX2                !
 ! R10   R(3,27)                 1.1074         estimate D2E/DX2                !
 ! R11   R(4,5)                  1.5554         estimate D2E/DX2                !
 ! R12   R(4,8)                  1.516          estimate D2E/DX2                !
 ! R13   R(4,28)                 1.1121         estimate D2E/DX2                !
 ! R14   R(5,6)                  1.5595         estimate D2E/DX2                !
 ! R15   R(5,14)                 1.5501         estimate D2E/DX2                !
 ! R16   R(5,29)                 1.1152         estimate D2E/DX2                !
 ! R17   R(6,7)                  1.5529         estimate D2E/DX2                !
 ! R18   R(6,9)                  1.5497         estimate D2E/DX2                !
 ! R19   R(6,30)                 1.1156         estimate D2E/DX2                !
 ! R20   R(7,8)                  1.5159         estimate D2E/DX2                !
 ! R21   R(7,31)                 1.1121         estimate D2E/DX2                !
 ! R22   R(8,32)                 1.1112         estimate D2E/DX2                !
 ! R23   R(8,33)                 1.1153         estimate D2E/DX2                !
 ! R24   R(9,10)                 1.5481         estimate D2E/DX2                !
 ! R25   R(9,34)                 1.107          estimate D2E/DX2                !
 ! R26   R(9,35)                 1.1124         estimate D2E/DX2                !
 ! R27   R(10,11)                1.5455         estimate D2E/DX2                !
 ! R28   R(10,36)                1.112          estimate D2E/DX2                !
 ! R29   R(10,37)                1.0995         estimate D2E/DX2                !
 ! R30   R(11,12)                1.5568         estimate D2E/DX2                !
 ! R31   R(11,17)                1.5582         estimate D2E/DX2                !
 ! R32   R(11,38)                1.116          estimate D2E/DX2                !
 ! R33   R(12,13)                1.5507         estimate D2E/DX2                !
 ! R34   R(12,15)                1.5528         estimate D2E/DX2                !
 ! R35   R(12,39)                1.1153         estimate D2E/DX2                !
 ! R36   R(13,14)                1.548          estimate D2E/DX2                !
 ! R37   R(13,40)                1.1125         estimate D2E/DX2                !
 ! R38   R(13,41)                1.1072         estimate D2E/DX2                !
 ! R39   R(14,42)                1.1125         estimate D2E/DX2                !
 ! R40   R(14,43)                1.1066         estimate D2E/DX2                !
 ! R41   R(15,16)                1.5216         estimate D2E/DX2                !
 ! R42   R(15,19)                1.5528         estimate D2E/DX2                !
 ! R43   R(15,44)                1.112          estimate D2E/DX2                !
 ! R44   R(16,17)                1.5187         estimate D2E/DX2                !
 ! R45   R(16,45)                1.1138         estimate D2E/DX2                !
 ! R46   R(16,46)                1.1156         estimate D2E/DX2                !
 ! R47   R(17,18)                1.5542         estimate D2E/DX2                !
 ! R48   R(17,47)                1.1116         estimate D2E/DX2                !
 ! R49   R(18,19)                1.5481         estimate D2E/DX2                !
 ! R50   R(18,21)                1.5352         estimate D2E/DX2                !
 ! R51   R(18,48)                1.1164         estimate D2E/DX2                !
 ! R52   R(19,20)                1.5357         estimate D2E/DX2                !
 ! R53   R(19,49)                1.1072         estimate D2E/DX2                !
 ! R54   R(20,50)                1.11           estimate D2E/DX2                !
 ! R55   R(20,51)                1.1107         estimate D2E/DX2                !
 ! R56   R(20,52)                1.1107         estimate D2E/DX2                !
 ! R57   R(21,53)                1.1071         estimate D2E/DX2                !
 ! R58   R(21,54)                1.1099         estimate D2E/DX2                !
 ! R59   R(21,55)                1.111          estimate D2E/DX2                !
 ! R60   R(22,56)                1.1108         estimate D2E/DX2                !
 ! R61   R(22,57)                1.11           estimate D2E/DX2                !
 ! R62   R(22,58)                1.1087         estimate D2E/DX2                !
 ! A1    A(2,1,23)             109.4696         estimate D2E/DX2                !
 ! A2    A(2,1,24)             112.1169         estimate D2E/DX2                !
 ! A3    A(2,1,25)             110.1825         estimate D2E/DX2                !
 ! A4    A(23,1,24)            107.9978         estimate D2E/DX2                !
 ! A5    A(23,1,25)            107.6257         estimate D2E/DX2                !
 ! A6    A(24,1,25)            109.3215         estimate D2E/DX2                !
 ! A7    A(1,2,3)              116.257          estimate D2E/DX2                !
 ! A8    A(1,2,7)              111.4057         estimate D2E/DX2                !
 ! A9    A(1,2,26)             105.7433         estimate D2E/DX2                !
 ! A10   A(3,2,7)              102.5186         estimate D2E/DX2                !
 ! A11   A(3,2,26)             109.5501         estimate D2E/DX2                !
 ! A12   A(7,2,26)             111.484          estimate D2E/DX2                !
 ! A13   A(2,3,4)              102.4251         estimate D2E/DX2                !
 ! A14   A(2,3,22)             116.3048         estimate D2E/DX2                !
 ! A15   A(2,3,27)             109.6444         estimate D2E/DX2                !
 ! A16   A(4,3,22)             111.4349         estimate D2E/DX2                !
 ! A17   A(4,3,27)             111.6723         estimate D2E/DX2                !
 ! A18   A(22,3,27)            105.5056         estimate D2E/DX2                !
 ! A19   A(3,4,5)              111.3941         estimate D2E/DX2                !
 ! A20   A(3,4,8)              101.6187         estimate D2E/DX2                !
 ! A21   A(3,4,28)             114.5516         estimate D2E/DX2                !
 ! A22   A(5,4,8)              100.7975         estimate D2E/DX2                !
 ! A23   A(5,4,28)             113.2202         estimate D2E/DX2                !
 ! A24   A(8,4,28)             113.8838         estimate D2E/DX2                !
 ! A25   A(4,5,6)              102.3632         estimate D2E/DX2                !
 ! A26   A(4,5,14)             114.4519         estimate D2E/DX2                !
 ! A27   A(4,5,29)             106.1073         estimate D2E/DX2                !
 ! A28   A(6,5,14)             118.1535         estimate D2E/DX2                !
 ! A29   A(6,5,29)             108.1735         estimate D2E/DX2                !
 ! A30   A(14,5,29)            106.8963         estimate D2E/DX2                !
 ! A31   A(5,6,7)              102.5296         estimate D2E/DX2                !
 ! A32   A(5,6,9)              118.1567         estimate D2E/DX2                !
 ! A33   A(5,6,30)             108.0898         estimate D2E/DX2                !
 ! A34   A(7,6,9)              114.817          estimate D2E/DX2                !
 ! A35   A(7,6,30)             105.7322         estimate D2E/DX2                !
 ! A36   A(9,6,30)             106.7604         estimate D2E/DX2                !
 ! A37   A(2,7,6)              111.3745         estimate D2E/DX2                !
 ! A38   A(2,7,8)              101.7814         estimate D2E/DX2                !
 ! A39   A(2,7,31)             114.6046         estimate D2E/DX2                !
 ! A40   A(6,7,8)              100.5965         estimate D2E/DX2                !
 ! A41   A(6,7,31)             113.2177         estimate D2E/DX2                !
 ! A42   A(8,7,31)             113.8755         estimate D2E/DX2                !
 ! A43   A(4,8,7)               94.6659         estimate D2E/DX2                !
 ! A44   A(4,8,32)             113.8291         estimate D2E/DX2                !
 ! A45   A(4,8,33)             113.0723         estimate D2E/DX2                !
 ! A46   A(7,8,32)             113.6727         estimate D2E/DX2                !
 ! A47   A(7,8,33)             113.1605         estimate D2E/DX2                !
 ! A48   A(32,8,33)            108.1393         estimate D2E/DX2                !
 ! A49   A(6,9,10)             112.5757         estimate D2E/DX2                !
 ! A50   A(6,9,34)             111.6894         estimate D2E/DX2                !
 ! A51   A(6,9,35)             107.6145         estimate D2E/DX2                !
 ! A52   A(10,9,34)            111.0779         estimate D2E/DX2                !
 ! A53   A(10,9,35)            107.8714         estimate D2E/DX2                !
 ! A54   A(34,9,35)            105.6307         estimate D2E/DX2                !
 ! A55   A(9,10,11)            112.8456         estimate D2E/DX2                !
 ! A56   A(9,10,36)            108.0            estimate D2E/DX2                !
 ! A57   A(9,10,37)            110.0201         estimate D2E/DX2                !
 ! A58   A(11,10,36)           107.7544         estimate D2E/DX2                !
 ! A59   A(11,10,37)           111.6123         estimate D2E/DX2                !
 ! A60   A(36,10,37)           106.302          estimate D2E/DX2                !
 ! A61   A(10,11,12)           118.5765         estimate D2E/DX2                !
 ! A62   A(10,11,17)           116.5224         estimate D2E/DX2                !
 ! A63   A(10,11,38)           105.3899         estimate D2E/DX2                !
 ! A64   A(12,11,17)           102.9143         estimate D2E/DX2                !
 ! A65   A(12,11,38)           107.4454         estimate D2E/DX2                !
 ! A66   A(17,11,38)           104.9993         estimate D2E/DX2                !
 ! A67   A(11,12,13)           117.9435         estimate D2E/DX2                !
 ! A68   A(11,12,15)           102.2348         estimate D2E/DX2                !
 ! A69   A(11,12,39)           108.2571         estimate D2E/DX2                !
 ! A70   A(13,12,15)           114.947          estimate D2E/DX2                !
 ! A71   A(13,12,39)           107.0003         estimate D2E/DX2                !
 ! A72   A(15,12,39)           105.715          estimate D2E/DX2                !
 ! A73   A(12,13,14)           112.7923         estimate D2E/DX2                !
 ! A74   A(12,13,40)           107.5059         estimate D2E/DX2                !
 ! A75   A(12,13,41)           111.803          estimate D2E/DX2                !
 ! A76   A(14,13,40)           107.747          estimate D2E/DX2                !
 ! A77   A(14,13,41)           110.9453         estimate D2E/DX2                !
 ! A78   A(40,13,41)           105.6425         estimate D2E/DX2                !
 ! A79   A(5,14,13)            113.176          estimate D2E/DX2                !
 ! A80   A(5,14,42)            107.4332         estimate D2E/DX2                !
 ! A81   A(5,14,43)            111.6262         estimate D2E/DX2                !
 ! A82   A(13,14,42)           107.7558         estimate D2E/DX2                !
 ! A83   A(13,14,43)           110.8619         estimate D2E/DX2                !
 ! A84   A(42,14,43)           105.5571         estimate D2E/DX2                !
 ! A85   A(12,15,16)           100.6406         estimate D2E/DX2                !
 ! A86   A(12,15,19)           111.0758         estimate D2E/DX2                !
 ! A87   A(12,15,44)           113.2507         estimate D2E/DX2                !
 ! A88   A(16,15,19)           102.0713         estimate D2E/DX2                !
 ! A89   A(16,15,44)           113.9539         estimate D2E/DX2                !
 ! A90   A(19,15,44)           114.4995         estimate D2E/DX2                !
 ! A91   A(15,16,17)            94.5935         estimate D2E/DX2                !
 ! A92   A(15,16,45)           113.6551         estimate D2E/DX2                !
 ! A93   A(15,16,46)           113.1986         estimate D2E/DX2                !
 ! A94   A(17,16,45)           113.6            estimate D2E/DX2                !
 ! A95   A(17,16,46)           113.4748         estimate D2E/DX2                !
 ! A96   A(45,16,46)           108.0358         estimate D2E/DX2                !
 ! A97   A(11,17,16)            99.6774         estimate D2E/DX2                !
 ! A98   A(11,17,18)           115.3689         estimate D2E/DX2                !
 ! A99   A(11,17,47)           113.7645         estimate D2E/DX2                !
 ! A100  A(16,17,18)            99.1279         estimate D2E/DX2                !
 ! A101  A(16,17,47)           113.4087         estimate D2E/DX2                !
 ! A102  A(18,17,47)           113.6673         estimate D2E/DX2                !
 ! A103  A(17,18,19)           102.9873         estimate D2E/DX2                !
 ! A104  A(17,18,21)           117.7386         estimate D2E/DX2                !
 ! A105  A(17,18,48)           105.9458         estimate D2E/DX2                !
 ! A106  A(19,18,21)           114.6949         estimate D2E/DX2                !
 ! A107  A(19,18,48)           109.8346         estimate D2E/DX2                !
 ! A108  A(21,18,48)           105.2758         estimate D2E/DX2                !
 ! A109  A(15,19,18)           102.2862         estimate D2E/DX2                !
 ! A110  A(15,19,20)           111.9534         estimate D2E/DX2                !
 ! A111  A(15,19,49)           111.8337         estimate D2E/DX2                !
 ! A112  A(18,19,20)           112.4355         estimate D2E/DX2                !
 ! A113  A(18,19,49)           112.0718         estimate D2E/DX2                !
 ! A114  A(20,19,49)           106.4022         estimate D2E/DX2                !
 ! A115  A(19,20,50)           111.6963         estimate D2E/DX2                !
 ! A116  A(19,20,51)           109.762          estimate D2E/DX2                !
 ! A117  A(19,20,52)           109.6887         estimate D2E/DX2                !
 ! A118  A(50,20,51)           108.6036         estimate D2E/DX2                !
 ! A119  A(50,20,52)           108.6679         estimate D2E/DX2                !
 ! A120  A(51,20,52)           108.3498         estimate D2E/DX2                !
 ! A121  A(18,21,53)           112.5243         estimate D2E/DX2                !
 ! A122  A(18,21,54)           110.6535         estimate D2E/DX2                !
 ! A123  A(18,21,55)           109.1625         estimate D2E/DX2                !
 ! A124  A(53,21,54)           110.5406         estimate D2E/DX2                !
 ! A125  A(53,21,55)           106.0281         estimate D2E/DX2                !
 ! A126  A(54,21,55)           107.7064         estimate D2E/DX2                !
 ! A127  A(3,22,56)            109.4649         estimate D2E/DX2                !
 ! A128  A(3,22,57)            110.1657         estimate D2E/DX2                !
 ! A129  A(3,22,58)            112.2395         estimate D2E/DX2                !
 ! A130  A(56,22,57)           107.6044         estimate D2E/DX2                !
 ! A131  A(56,22,58)           107.9857         estimate D2E/DX2                !
 ! A132  A(57,22,58)           109.2481         estimate D2E/DX2                !
 ! D1    D(23,1,2,3)          -179.6236         estimate D2E/DX2                !
 ! D2    D(23,1,2,7)           -62.6885         estimate D2E/DX2                !
 ! D3    D(23,1,2,26)           58.5913         estimate D2E/DX2                !
 ! D4    D(24,1,2,3)           -59.7941         estimate D2E/DX2                !
 ! D5    D(24,1,2,7)            57.141          estimate D2E/DX2                !
 ! D6    D(24,1,2,26)          178.4208         estimate D2E/DX2                !
 ! D7    D(25,1,2,3)            62.2045         estimate D2E/DX2                !
 ! D8    D(25,1,2,7)           179.1396         estimate D2E/DX2                !
 ! D9    D(25,1,2,26)          -59.5807         estimate D2E/DX2                !
 ! D10   D(1,2,3,4)            122.2855         estimate D2E/DX2                !
 ! D11   D(1,2,3,22)             0.5264         estimate D2E/DX2                !
 ! D12   D(1,2,3,27)          -119.018          estimate D2E/DX2                !
 ! D13   D(7,2,3,4)              0.5229         estimate D2E/DX2                !
 ! D14   D(7,2,3,22)          -121.2362         estimate D2E/DX2                !
 ! D15   D(7,2,3,27)           119.2194         estimate D2E/DX2                !
 ! D16   D(26,2,3,4)          -117.964          estimate D2E/DX2                !
 ! D17   D(26,2,3,22)          120.2769         estimate D2E/DX2                !
 ! D18   D(26,2,3,27)            0.7325         estimate D2E/DX2                !
 ! D19   D(1,2,7,6)            163.5144         estimate D2E/DX2                !
 ! D20   D(1,2,7,8)            -90.0251         estimate D2E/DX2                !
 ! D21   D(1,2,7,31)            33.36           estimate D2E/DX2                !
 ! D22   D(3,2,7,6)            -71.4708         estimate D2E/DX2                !
 ! D23   D(3,2,7,8)             34.9897         estimate D2E/DX2                !
 ! D24   D(3,2,7,31)           158.3748         estimate D2E/DX2                !
 ! D25   D(26,2,7,6)            45.6434         estimate D2E/DX2                !
 ! D26   D(26,2,7,8)           152.1039         estimate D2E/DX2                !
 ! D27   D(26,2,7,31)          -84.5109         estimate D2E/DX2                !
 ! D28   D(2,3,4,5)             70.7556         estimate D2E/DX2                !
 ! D29   D(2,3,4,8)            -35.8609         estimate D2E/DX2                !
 ! D30   D(2,3,4,28)          -159.1159         estimate D2E/DX2                !
 ! D31   D(22,3,4,5)          -164.2153         estimate D2E/DX2                !
 ! D32   D(22,3,4,8)            89.1681         estimate D2E/DX2                !
 ! D33   D(22,3,4,28)          -34.0869         estimate D2E/DX2                !
 ! D34   D(27,3,4,5)           -46.5014         estimate D2E/DX2                !
 ! D35   D(27,3,4,8)          -153.118          estimate D2E/DX2                !
 ! D36   D(27,3,4,28)           83.627          estimate D2E/DX2                !
 ! D37   D(2,3,22,56)          179.2585         estimate D2E/DX2                !
 ! D38   D(2,3,22,57)          -62.6084         estimate D2E/DX2                !
 ! D39   D(2,3,22,58)           59.3686         estimate D2E/DX2                !
 ! D40   D(4,3,22,56)           62.3911         estimate D2E/DX2                !
 ! D41   D(4,3,22,57)         -179.4758         estimate D2E/DX2                !
 ! D42   D(4,3,22,58)          -57.4988         estimate D2E/DX2                !
 ! D43   D(27,3,22,56)         -58.9843         estimate D2E/DX2                !
 ! D44   D(27,3,22,57)          59.1488         estimate D2E/DX2                !
 ! D45   D(27,3,22,58)        -178.8742         estimate D2E/DX2                !
 ! D46   D(3,4,5,6)            -71.4837         estimate D2E/DX2                !
 ! D47   D(3,4,5,14)            57.5885         estimate D2E/DX2                !
 ! D48   D(3,4,5,29)           175.2102         estimate D2E/DX2                !
 ! D49   D(8,4,5,6)             35.6689         estimate D2E/DX2                !
 ! D50   D(8,4,5,14)           164.7412         estimate D2E/DX2                !
 ! D51   D(8,4,5,29)           -77.6372         estimate D2E/DX2                !
 ! D52   D(28,4,5,6)           157.6968         estimate D2E/DX2                !
 ! D53   D(28,4,5,14)          -73.2309         estimate D2E/DX2                !
 ! D54   D(28,4,5,29)           44.3907         estimate D2E/DX2                !
 ! D55   D(3,4,8,7)             56.789          estimate D2E/DX2                !
 ! D56   D(3,4,8,32)           -61.6637         estimate D2E/DX2                !
 ! D57   D(3,4,8,33)           174.4144         estimate D2E/DX2                !
 ! D58   D(5,4,8,7)            -57.9407         estimate D2E/DX2                !
 ! D59   D(5,4,8,32)          -176.3934         estimate D2E/DX2                !
 ! D60   D(5,4,8,33)            59.6848         estimate D2E/DX2                !
 ! D61   D(28,4,8,7)          -179.5019         estimate D2E/DX2                !
 ! D62   D(28,4,8,32)           62.0454         estimate D2E/DX2                !
 ! D63   D(28,4,8,33)          -61.8764         estimate D2E/DX2                !
 ! D64   D(4,5,6,7)              0.5173         estimate D2E/DX2                !
 ! D65   D(4,5,6,9)            127.8627         estimate D2E/DX2                !
 ! D66   D(4,5,6,30)          -110.8776         estimate D2E/DX2                !
 ! D67   D(14,5,6,7)          -126.2038         estimate D2E/DX2                !
 ! D68   D(14,5,6,9)             1.1416         estimate D2E/DX2                !
 ! D69   D(14,5,6,30)          122.4012         estimate D2E/DX2                !
 ! D70   D(29,5,6,7)           112.2878         estimate D2E/DX2                !
 ! D71   D(29,5,6,9)          -120.3668         estimate D2E/DX2                !
 ! D72   D(29,5,6,30)            0.8929         estimate D2E/DX2                !
 ! D73   D(4,5,14,13)          162.3582         estimate D2E/DX2                !
 ! D74   D(4,5,14,42)           43.5333         estimate D2E/DX2                !
 ! D75   D(4,5,14,43)          -71.7372         estimate D2E/DX2                !
 ! D76   D(6,5,14,13)          -76.9708         estimate D2E/DX2                !
 ! D77   D(6,5,14,42)          164.2042         estimate D2E/DX2                !
 ! D78   D(6,5,14,43)           48.9338         estimate D2E/DX2                !
 ! D79   D(29,5,14,13)          45.1876         estimate D2E/DX2                !
 ! D80   D(29,5,14,42)         -73.6374         estimate D2E/DX2                !
 ! D81   D(29,5,14,43)         171.0922         estimate D2E/DX2                !
 ! D82   D(5,6,7,2)             70.7088         estimate D2E/DX2                !
 ! D83   D(5,6,7,8)            -36.5258         estimate D2E/DX2                !
 ! D84   D(5,6,7,31)          -158.4173         estimate D2E/DX2                !
 ! D85   D(9,6,7,2)            -58.737          estimate D2E/DX2                !
 ! D86   D(9,6,7,8)           -165.9716         estimate D2E/DX2                !
 ! D87   D(9,6,7,31)            72.137          estimate D2E/DX2                !
 ! D88   D(30,6,7,2)          -176.1458         estimate D2E/DX2                !
 ! D89   D(30,6,7,8)            76.6196         estimate D2E/DX2                !
 ! D90   D(30,6,7,31)          -45.2719         estimate D2E/DX2                !
 ! D91   D(5,6,9,10)            77.002          estimate D2E/DX2                !
 ! D92   D(5,6,9,34)           -48.7671         estimate D2E/DX2                !
 ! D93   D(5,6,9,35)          -164.2669         estimate D2E/DX2                !
 ! D94   D(7,6,9,10)          -161.7597         estimate D2E/DX2                !
 ! D95   D(7,6,9,34)            72.4712         estimate D2E/DX2                !
 ! D96   D(7,6,9,35)           -43.0285         estimate D2E/DX2                !
 ! D97   D(30,6,9,10)          -44.936          estimate D2E/DX2                !
 ! D98   D(30,6,9,34)         -170.705          estimate D2E/DX2                !
 ! D99   D(30,6,9,35)           73.7952         estimate D2E/DX2                !
 ! D100  D(2,7,8,4)            -56.4591         estimate D2E/DX2                !
 ! D101  D(2,7,8,32)            62.1203         estimate D2E/DX2                !
 ! D102  D(2,7,8,33)          -174.0125         estimate D2E/DX2                !
 ! D103  D(6,7,8,4)             58.2358         estimate D2E/DX2                !
 ! D104  D(6,7,8,32)           176.8151         estimate D2E/DX2                !
 ! D105  D(6,7,8,33)           -59.3177         estimate D2E/DX2                !
 ! D106  D(31,7,8,4)           179.6623         estimate D2E/DX2                !
 ! D107  D(31,7,8,32)          -61.7583         estimate D2E/DX2                !
 ! D108  D(31,7,8,33)           62.1089         estimate D2E/DX2                !
 ! D109  D(6,9,10,11)         -119.0568         estimate D2E/DX2                !
 ! D110  D(6,9,10,36)          121.9431         estimate D2E/DX2                !
 ! D111  D(6,9,10,37)            6.3156         estimate D2E/DX2                !
 ! D112  D(34,9,10,11)           7.0426         estimate D2E/DX2                !
 ! D113  D(34,9,10,36)        -111.9575         estimate D2E/DX2                !
 ! D114  D(34,9,10,37)         132.4151         estimate D2E/DX2                !
 ! D115  D(35,9,10,11)         122.3624         estimate D2E/DX2                !
 ! D116  D(35,9,10,36)           3.3623         estimate D2E/DX2                !
 ! D117  D(35,9,10,37)        -112.2651         estimate D2E/DX2                !
 ! D118  D(9,10,11,12)          74.2167         estimate D2E/DX2                !
 ! D119  D(9,10,11,17)        -161.9855         estimate D2E/DX2                !
 ! D120  D(9,10,11,38)         -46.0489         estimate D2E/DX2                !
 ! D121  D(36,10,11,12)       -166.6407         estimate D2E/DX2                !
 ! D122  D(36,10,11,17)        -42.8429         estimate D2E/DX2                !
 ! D123  D(36,10,11,38)         73.0937         estimate D2E/DX2                !
 ! D124  D(37,10,11,12)        -50.2892         estimate D2E/DX2                !
 ! D125  D(37,10,11,17)         73.5086         estimate D2E/DX2                !
 ! D126  D(37,10,11,38)       -170.5548         estimate D2E/DX2                !
 ! D127  D(10,11,12,13)          4.1938         estimate D2E/DX2                !
 ! D128  D(10,11,12,15)        131.3194         estimate D2E/DX2                !
 ! D129  D(10,11,12,39)       -117.3732         estimate D2E/DX2                !
 ! D130  D(17,11,12,13)       -126.0904         estimate D2E/DX2                !
 ! D131  D(17,11,12,15)          1.0352         estimate D2E/DX2                !
 ! D132  D(17,11,12,39)        112.3426         estimate D2E/DX2                !
 ! D133  D(38,11,12,13)        123.399          estimate D2E/DX2                !
 ! D134  D(38,11,12,15)       -109.4754         estimate D2E/DX2                !
 ! D135  D(38,11,12,39)          1.832          estimate D2E/DX2                !
 ! D136  D(10,11,17,16)       -168.7739         estimate D2E/DX2                !
 ! D137  D(10,11,17,18)        -63.7654         estimate D2E/DX2                !
 ! D138  D(10,11,17,47)         70.1988         estimate D2E/DX2                !
 ! D139  D(12,11,17,16)        -37.2527         estimate D2E/DX2                !
 ! D140  D(12,11,17,18)         67.7558         estimate D2E/DX2                !
 ! D141  D(12,11,17,47)       -158.2799         estimate D2E/DX2                !
 ! D142  D(38,11,17,16)         75.0724         estimate D2E/DX2                !
 ! D143  D(38,11,17,18)       -179.9191         estimate D2E/DX2                !
 ! D144  D(38,11,17,47)        -45.9549         estimate D2E/DX2                !
 ! D145  D(11,12,13,14)        -79.4426         estimate D2E/DX2                !
 ! D146  D(11,12,13,40)        161.9227         estimate D2E/DX2                !
 ! D147  D(11,12,13,41)         46.4115         estimate D2E/DX2                !
 ! D148  D(15,12,13,14)        159.8053         estimate D2E/DX2                !
 ! D149  D(15,12,13,40)         41.1706         estimate D2E/DX2                !
 ! D150  D(15,12,13,41)        -74.3406         estimate D2E/DX2                !
 ! D151  D(39,12,13,14)         42.7663         estimate D2E/DX2                !
 ! D152  D(39,12,13,40)        -75.8684         estimate D2E/DX2                !
 ! D153  D(39,12,13,41)        168.6205         estimate D2E/DX2                !
 ! D154  D(11,12,15,16)         35.5428         estimate D2E/DX2                !
 ! D155  D(11,12,15,19)        -71.9417         estimate D2E/DX2                !
 ! D156  D(11,12,15,44)        157.5714         estimate D2E/DX2                !
 ! D157  D(13,12,15,16)        164.571          estimate D2E/DX2                !
 ! D158  D(13,12,15,19)         57.0866         estimate D2E/DX2                !
 ! D159  D(13,12,15,44)        -73.4004         estimate D2E/DX2                !
 ! D160  D(39,12,15,16)        -77.6623         estimate D2E/DX2                !
 ! D161  D(39,12,15,19)        174.8532         estimate D2E/DX2                !
 ! D162  D(39,12,15,44)         44.3663         estimate D2E/DX2                !
 ! D163  D(12,13,14,5)         117.3647         estimate D2E/DX2                !
 ! D164  D(12,13,14,42)       -123.997          estimate D2E/DX2                !
 ! D165  D(12,13,14,43)         -8.9473         estimate D2E/DX2                !
 ! D166  D(40,13,14,5)        -124.1413         estimate D2E/DX2                !
 ! D167  D(40,13,14,42)         -5.503          estimate D2E/DX2                !
 ! D168  D(40,13,14,43)        109.5467         estimate D2E/DX2                !
 ! D169  D(41,13,14,5)          -8.9501         estimate D2E/DX2                !
 ! D170  D(41,13,14,42)        109.6883         estimate D2E/DX2                !
 ! D171  D(41,13,14,43)       -135.262          estimate D2E/DX2                !
 ! D172  D(12,15,16,17)        -58.5669         estimate D2E/DX2                !
 ! D173  D(12,15,16,45)       -176.84           estimate D2E/DX2                !
 ! D174  D(12,15,16,46)         59.4166         estimate D2E/DX2                !
 ! D175  D(19,15,16,17)         55.9113         estimate D2E/DX2                !
 ! D176  D(19,15,16,45)        -62.3618         estimate D2E/DX2                !
 ! D177  D(19,15,16,46)        173.8947         estimate D2E/DX2                !
 ! D178  D(44,15,16,17)        179.9005         estimate D2E/DX2                !
 ! D179  D(44,15,16,45)         61.6274         estimate D2E/DX2                !
 ! D180  D(44,15,16,46)        -62.1161         estimate D2E/DX2                !
 ! D181  D(12,15,19,18)         75.9073         estimate D2E/DX2                !
 ! D182  D(12,15,19,20)       -163.5015         estimate D2E/DX2                !
 ! D183  D(12,15,19,49)        -44.1952         estimate D2E/DX2                !
 ! D184  D(16,15,19,18)        -30.6382         estimate D2E/DX2                !
 ! D185  D(16,15,19,20)         89.953          estimate D2E/DX2                !
 ! D186  D(16,15,19,49)       -150.7408         estimate D2E/DX2                !
 ! D187  D(44,15,19,18)       -154.2608         estimate D2E/DX2                !
 ! D188  D(44,15,19,20)        -33.6696         estimate D2E/DX2                !
 ! D189  D(44,15,19,49)         85.6367         estimate D2E/DX2                !
 ! D190  D(15,16,17,11)         58.7097         estimate D2E/DX2                !
 ! D191  D(15,16,17,18)        -59.1691         estimate D2E/DX2                !
 ! D192  D(15,16,17,47)        179.9939         estimate D2E/DX2                !
 ! D193  D(45,16,17,11)        177.0275         estimate D2E/DX2                !
 ! D194  D(45,16,17,18)         59.1487         estimate D2E/DX2                !
 ! D195  D(45,16,17,47)        -61.6882         estimate D2E/DX2                !
 ! D196  D(46,16,17,11)        -59.0484         estimate D2E/DX2                !
 ! D197  D(46,16,17,18)       -176.9273         estimate D2E/DX2                !
 ! D198  D(46,16,17,47)         62.2358         estimate D2E/DX2                !
 ! D199  D(11,17,18,19)        -64.1058         estimate D2E/DX2                !
 ! D200  D(11,17,18,21)         63.1739         estimate D2E/DX2                !
 ! D201  D(11,17,18,48)       -179.4493         estimate D2E/DX2                !
 ! D202  D(16,17,18,19)         41.2382         estimate D2E/DX2                !
 ! D203  D(16,17,18,21)        168.5179         estimate D2E/DX2                !
 ! D204  D(16,17,18,48)        -74.1053         estimate D2E/DX2                !
 ! D205  D(47,17,18,19)        161.8857         estimate D2E/DX2                !
 ! D206  D(47,17,18,21)        -70.8346         estimate D2E/DX2                !
 ! D207  D(47,17,18,48)         46.5422         estimate D2E/DX2                !
 ! D208  D(17,18,19,15)         -6.4201         estimate D2E/DX2                !
 ! D209  D(17,18,19,20)       -126.6764         estimate D2E/DX2                !
 ! D210  D(17,18,19,49)        113.5164         estimate D2E/DX2                !
 ! D211  D(21,18,19,15)       -135.6025         estimate D2E/DX2                !
 ! D212  D(21,18,19,20)        104.1412         estimate D2E/DX2                !
 ! D213  D(21,18,19,49)        -15.6661         estimate D2E/DX2                !
 ! D214  D(48,18,19,15)        106.0941         estimate D2E/DX2                !
 ! D215  D(48,18,19,20)        -14.1622         estimate D2E/DX2                !
 ! D216  D(48,18,19,49)       -133.9695         estimate D2E/DX2                !
 ! D217  D(17,18,21,53)        -91.7005         estimate D2E/DX2                !
 ! D218  D(17,18,21,54)         32.5115         estimate D2E/DX2                !
 ! D219  D(17,18,21,55)        150.8763         estimate D2E/DX2                !
 ! D220  D(19,18,21,53)         29.7183         estimate D2E/DX2                !
 ! D221  D(19,18,21,54)        153.9303         estimate D2E/DX2                !
 ! D222  D(19,18,21,55)        -87.7049         estimate D2E/DX2                !
 ! D223  D(48,18,21,53)        150.5639         estimate D2E/DX2                !
 ! D224  D(48,18,21,54)        -85.224          estimate D2E/DX2                !
 ! D225  D(48,18,21,55)         33.1408         estimate D2E/DX2                !
 ! D226  D(15,19,20,50)        -56.2524         estimate D2E/DX2                !
 ! D227  D(15,19,20,51)         64.2633         estimate D2E/DX2                !
 ! D228  D(15,19,20,52)       -176.7996         estimate D2E/DX2                !
 ! D229  D(18,19,20,50)         58.2448         estimate D2E/DX2                !
 ! D230  D(18,19,20,51)        178.7605         estimate D2E/DX2                !
 ! D231  D(18,19,20,52)        -62.3024         estimate D2E/DX2                !
 ! D232  D(49,19,20,50)       -178.7083         estimate D2E/DX2                !
 ! D233  D(49,19,20,51)        -58.1927         estimate D2E/DX2                !
 ! D234  D(49,19,20,52)         60.7444         estimate D2E/DX2                !
 --------------------------------------------------------------------------------
 Trust Radius=5.00D-02 FncErr=1.00D-07 GrdErr=1.00D-06 EigMax=2.50D+02 EigMin=1.00D-04
 Number of steps in this run=    348 maximum allowed number of steps=    348.
 GradGradGradGradGradGradGradGradGradGradGradGradGradGradGradGradGradGrad

 Stoichiometry    C22H36
 Framework group  C1[X(C22H36)]
 Deg. of freedom   168
 Full point group                 C1      NOp   1
 Largest Abelian subgroup         C1      NOp   1
 Largest concise Abelian subgroup C1      NOp   1
                         Standard orientation:                         
 ---------------------------------------------------------------------
 Center     Atomic      Atomic             Coordinates (Angstroms)
 Number     Number       Type             X           Y           Z
 ---------------------------------------------------------------------
      1          6           0        5.043022    1.203820   -1.050198
      2          6           0        3.667160    0.594376   -0.723672
      3          6           0        3.641554   -0.938334   -0.439901
      4          6           0        3.030865   -1.003908    0.985698
      5          6           0        1.520942   -0.630926    0.973824
      6          6           0        1.558374    0.904342    0.702642
      7          6           0        3.080471    1.188598    0.584655
      8          6           0        3.624138    0.233941    1.629237
      9          6           0        0.700331    1.462562   -0.460853
     10          6           0       -0.801527    1.560200   -0.098049
     11          6           0       -1.697068    0.692772   -1.011339
     12          6           0       -1.693328   -0.850815   -0.809061
     13          6           0       -0.863439   -1.427563    0.367137
     14          6           0        0.648580   -1.516237    0.047456
     15          6           0       -3.210026   -1.180464   -0.764041
     16          6           0       -3.746228   -0.174532   -1.771988
     17          6           0       -3.216375    1.038240   -1.027117
     18          6           0       -3.958170    0.841036    0.324319
     19          6           0       -3.850030   -0.685017    0.561101
     20          6           0       -5.216812   -1.336667    0.817378
     21          6           0       -3.519291    1.707268    1.513356
     22          6           0        4.996840   -1.667497   -0.505825
     23          1           0        4.932463    2.295165   -1.225024
     24          1           0        5.769541    1.060919   -0.224603
     25          1           0        5.450219    0.754099   -1.979681
     26          1           0        3.023387    0.820622   -1.596471
     27          1           0        2.996721   -1.444124   -1.184700
     28          1           0        3.245653   -1.945211    1.537557
     29          1           0        1.154416   -0.791428    2.014718
     30          1           0        1.223798    1.427997    1.629096
     31          1           0        3.343090    2.253577    0.768026
     32          1           0        4.733761    0.221497    1.687857
     33          1           0        3.224548    0.429008    2.652100
     34          1           0        0.847983    0.883301   -1.392583
     35          1           0        1.064752    2.489337   -0.685346
     36          1           0       -1.116654    2.619469   -0.221307
     37          1           0       -0.948917    1.315910    0.963820
     38          1           0       -1.344112    0.894871   -2.050562
     39          1           0       -1.308796   -1.324613   -1.742624
     40          1           0       -1.230167   -2.459812    0.560918
     41          1           0       -1.037225   -0.867754    1.306435
     42          1           0        0.966132   -2.571614    0.199279
     43          1           0        0.838827   -1.299837   -1.020957
     44          1           0       -3.436917   -2.239026   -1.018202
     45          1           0       -4.855642   -0.188057   -1.869954
     46          1           0       -3.308026   -0.296849   -2.790578
     47          1           0       -3.451421    2.001975   -1.528660
     48          1           0       -5.022108    1.120342    0.133799
     49          1           0       -3.219219   -0.926241    1.438466
     50          1           0       -5.917016   -1.167220   -0.027087
     51          1           0       -5.090482   -2.431013    0.958776
     52          1           0       -5.665416   -0.914199    1.741404
     53          1           0       -2.738797    1.219162    2.128448
     54          1           0       -3.174838    2.703508    1.165883
     55          1           0       -4.387059    1.866368    2.188587
     56          1           0        4.849795   -2.743736   -0.273682
     57          1           0        5.418462   -1.599613   -1.530429
     58          1           0        5.729379   -1.257952    0.218734
 ---------------------------------------------------------------------
 Rotational constants (GHZ):           0.7021539           0.1446107           0.1389860
 Standard basis: 6-31G(d,p) (6D, 7F)
 There are   510 symmetry adapted cartesian basis functions of A   symmetry.
 There are   510 symmetry adapted basis functions of A   symmetry.
   510 basis functions,   868 primitive gaussians,   510 cartesian basis functions
    84 alpha electrons       84 beta electrons
       nuclear repulsion energy      2006.3699697532 Hartrees.
 NAtoms=   58 NActive=   58 NUniq=   58 SFac= 1.00D+00 NAtFMM=   60 NAOKFM=F Big=F
 Integral buffers will be    131072 words long.
 Raffenetti 2 integral format.
 Two-electron integral symmetry is turned on.
 One-electron integrals computed using PRISM.
 NBasis=   510 RedAO= T EigKep=  8.72D-04  NBF=   510
 NBsUse=   510 1.00D-06 EigRej= -1.00D+00 NBFU=   510
 ExpMin= 1.61D-01 ExpMax= 3.05D+03 ExpMxC= 4.57D+02 IAcc=3 IRadAn=         5 AccDes= 0.00D+00
 Harris functional with IExCor=  402 and IRadAn=       5 diagonalized for initial guess.
 HarFok:  IExCor=  402 AccDes= 0.00D+00 IRadAn=         5 IDoV= 1 UseB2=F ITyADJ=14
 ICtDFT=  3500011 ScaDFX=  1.000000  1.000000  1.000000  1.000000
 FoFCou: FMM=F IPFlag=           0 FMFlag=      100000 FMFlg1=           0
         NFxFlg=           0 DoJE=T BraDBF=F KetDBF=T FulRan=T
         wScrn=  0.000000 ICntrl=       500 IOpCl=  0 I1Cent=   200000004 NGrid=           0
         NMat0=    1 NMatS0=      1 NMatT0=    0 NMatD0=    1 NMtDS0=    0 NMtDT0=    0
 Petite list used in FoFCou.
 Requested convergence on RMS density matrix=1.00D-08 within 128 cycles.
 Requested convergence on MAX density matrix=1.00D-06.
 Requested convergence on             energy=1.00D-06.
 No special actions if energy rises.
 Integral accuracy reduced to 1.0D-05 until final iterations.
 Initial convergence to 1.0D-05 achieved.  Increase integral accuracy.
 SCF Done:  E(RB3LYP) =  -860.045725683     A.U. after   12 cycles
            NFock= 12  Conv=0.59D-08     -V/T= 2.0103
 QCSCF skips out because SCF is already converged.

 **********************************************************************

            Population analysis using the SCF Density.

 **********************************************************************

 Orbital symmetries:
       Occupied  (A) (A) (A) (A) (A) (A) (A) (A) (A) (A) (A) (A)
                 (A) (A) (A) (A) (A) (A) (A) (A) (A) (A) (A) (A)
                 (A) (A) (A) (A) (A) (A) (A) (A) (A) (A) (A) (A)
                 (A) (A) (A) (A) (A) (A) (A) (A) (A) (A) (A) (A)
                 (A) (A) (A) (A) (A) (A) (A) (A) (A) (A) (A) (A)
                 (A) (A) (A) (A) (A) (A) (A) (A) (A) (A) (A) (A)
                 (A) (A) (A) (A) (A) (A) (A) (A) (A) (A) (A) (A)
       Virtual   (A) (A) (A) (A) (A) (A) (A) (A) (A) (A) (A) (A)
                 (A) (A) (A) (A) (A) (A) (A) (A) (A) (A) (A) (A)
                 (A) (A) (A) (A) (A) (A) (A) (A) (A) (A) (A) (A)
                 (A) (A) (A) (A) (A) (A) (A) (A) (A) (A) (A) (A)
                 (A) (A) (A) (A) (A) (A) (A) (A) (A) (A) (A) (A)
                 (A) (A) (A) (A) (A) (A) (A) (A) (A) (A) (A) (A)
                 (A) (A) (A) (A) (A) (A) (A) (A) (A) (A) (A) (A)
                 (A) (A) (A) (A) (A) (A) (A) (A) (A) (A) (A) (A)
                 (A) (A) (A) (A) (A) (A) (A) (A) (A) (A) (A) (A)
                 (A) (A) (A) (A) (A) (A) (A) (A) (A) (A) (A) (A)
                 (A) (A) (A) (A) (A) (A) (A) (A) (A) (A) (A) (A)
                 (A) (A) (A) (A) (A) (A) (A) (A) (A) (A) (A) (A)
                 (A) (A) (A) (A) (A) (A) (A) (A) (A) (A) (A) (A)
                 (A) (A) (A) (A) (A) (A) (A) (A) (A) (A) (A) (A)
                 (A) (A) (A) (A) (A) (A) (A) (A) (A) (A) (A) (A)
                 (A) (A) (A) (A) (A) (A) (A) (A) (A) (A) (A) (A)
                 (A) (A) (A) (A) (A) (A) (A) (A) (A) (A) (A) (A)
                 (A) (A) (A) (A) (A) (A) (A) (A) (A) (A) (A) (A)
                 (A) (A) (A) (A) (A) (A) (A) (A) (A) (A) (A) (A)
                 (A) (A) (A) (A) (A) (A) (A) (A) (A) (A) (A) (A)
                 (A) (A) (A) (A) (A) (A) (A) (A) (A) (A) (A) (A)
                 (A) (A) (A) (A) (A) (A) (A) (A) (A) (A) (A) (A)
                 (A) (A) (A) (A) (A) (A) (A) (A) (A) (A) (A) (A)
                 (A) (A) (A) (A) (A) (A) (A) (A) (A) (A) (A) (A)
                 (A) (A) (A) (A) (A) (A) (A) (A) (A) (A) (A) (A)
                 (A) (A) (A) (A) (A) (A) (A) (A) (A) (A) (A) (A)
                 (A) (A) (A) (A) (A) (A) (A) (A) (A) (A) (A) (A)
                 (A) (A) (A) (A) (A) (A) (A) (A) (A) (A) (A) (A)
                 (A) (A) (A) (A) (A) (A) (A) (A) (A) (A) (A) (A)
                 (A) (A) (A) (A) (A) (A) (A) (A) (A) (A) (A) (A)
                 (A) (A) (A) (A) (A) (A) (A) (A) (A) (A) (A) (A)
                 (A) (A) (A) (A) (A) (A) (A) (A) (A) (A) (A) (A)
                 (A) (A) (A) (A) (A) (A) (A) (A) (A) (A) (A) (A)
                 (A) (A) (A) (A) (A) (A) (A) (A) (A) (A) (A) (A)
                 (A) (A) (A) (A) (A) (A) (A) (A) (A) (A) (A) (A)
                 (A) (A) (A) (A) (A) (A)
 The electronic state is 1-A.
 Alpha  occ. eigenvalues --  -10.17924 -10.17854 -10.17830 -10.17811 -10.17797
 Alpha  occ. eigenvalues --  -10.17787 -10.17734 -10.17724 -10.17557 -10.17507
 Alpha  occ. eigenvalues --  -10.17498 -10.17397 -10.17387 -10.17330 -10.17284
 Alpha  occ. eigenvalues --  -10.17240 -10.17231 -10.17229 -10.17226 -10.17178
 Alpha  occ. eigenvalues --  -10.16866 -10.16796  -0.87434  -0.87073  -0.79515
 Alpha  occ. eigenvalues --   -0.76827  -0.76822  -0.74615  -0.73828  -0.72494
 Alpha  occ. eigenvalues --   -0.71004  -0.68647  -0.65960  -0.64795  -0.64031
 Alpha  occ. eigenvalues --   -0.62605  -0.60910  -0.58792  -0.55140  -0.54208
 Alpha  occ. eigenvalues --   -0.53984  -0.53763  -0.50202  -0.49521  -0.49261
 Alpha  occ. eigenvalues --   -0.49166  -0.47535  -0.46582  -0.45006  -0.42823
 Alpha  occ. eigenvalues --   -0.42030  -0.41152  -0.40978  -0.40880  -0.40358
 Alpha  occ. eigenvalues --   -0.39643  -0.39465  -0.38939  -0.38494  -0.38335
 Alpha  occ. eigenvalues --   -0.38039  -0.37165  -0.36863  -0.36697  -0.35537
 Alpha  occ. eigenvalues --   -0.34605  -0.34180  -0.33344  -0.32896  -0.32840
 Alpha  occ. eigenvalues --   -0.32615  -0.32162  -0.31555  -0.31427  -0.31029
 Alpha  occ. eigenvalues --   -0.30959  -0.29728  -0.29354  -0.29256  -0.28197
 Alpha  occ. eigenvalues --   -0.28182  -0.27464  -0.26697  -0.26308
 Alpha virt. eigenvalues --    0.06961   0.07269   0.07587   0.08954   0.09232
 Alpha virt. eigenvalues --    0.10051   0.10632   0.11280   0.11952   0.12266
 Alpha virt. eigenvalues --    0.13284   0.13700   0.14242   0.14560   0.14647
 Alpha virt. eigenvalues --    0.15325   0.15773   0.15970   0.16438   0.16814
 Alpha virt. eigenvalues --    0.17160   0.17760   0.17988   0.18051   0.18667
 Alpha virt. eigenvalues --    0.18868   0.19762   0.20050   0.20412   0.20539
 Alpha virt. eigenvalues --    0.20759   0.20832   0.21034   0.21512   0.21845
 Alpha virt. eigenvalues --    0.22264   0.22476   0.22908   0.23080   0.23550
 Alpha virt. eigenvalues --    0.23896   0.24902   0.25351   0.25617   0.25706
 Alpha virt. eigenvalues --    0.26066   0.26713   0.27017   0.27786   0.28845
 Alpha virt. eigenvalues --    0.30132   0.30281   0.30584   0.31067   0.31648
 Alpha virt. eigenvalues --    0.32202   0.33205   0.34794   0.35505   0.36386
 Alpha virt. eigenvalues --    0.37735   0.40507   0.46792   0.49452   0.50988
 Alpha virt. eigenvalues --    0.51759   0.52176   0.53053   0.53415   0.53985
 Alpha virt. eigenvalues --    0.54659   0.55531   0.56483   0.57718   0.58183
 Alpha virt. eigenvalues --    0.59229   0.59782   0.60095   0.60617   0.60999
 Alpha virt. eigenvalues --    0.61834   0.62525   0.63310   0.64574   0.65038
 Alpha virt. eigenvalues --    0.65647   0.66645   0.66899   0.67113   0.67460
 Alpha virt. eigenvalues --    0.67996   0.68231   0.69080   0.70545   0.71368
 Alpha virt. eigenvalues --    0.72420   0.72679   0.73007   0.73109   0.73508
 Alpha virt. eigenvalues --    0.75307   0.76141   0.76877   0.77852   0.77978
 Alpha virt. eigenvalues --    0.78537   0.78697   0.79559   0.79871   0.80594
 Alpha virt. eigenvalues --    0.81912   0.82180   0.82711   0.82896   0.83099
 Alpha virt. eigenvalues --    0.83560   0.84429   0.84452   0.85408   0.86296
 Alpha virt. eigenvalues --    0.86346   0.86985   0.87226   0.87331   0.87652
 Alpha virt. eigenvalues --    0.88062   0.88302   0.88815   0.89260   0.89410
 Alpha virt. eigenvalues --    0.89796   0.90291   0.90852   0.91497   0.92185
 Alpha virt. eigenvalues --    0.92459   0.92930   0.93723   0.93879   0.94639
 Alpha virt. eigenvalues --    0.95077   0.95650   0.96154   0.96426   0.96874
 Alpha virt. eigenvalues --    0.97715   0.98065   0.98246   0.99445   0.99951
 Alpha virt. eigenvalues --    1.00686   1.01988   1.02730   1.03527   1.05061
 Alpha virt. eigenvalues --    1.06467   1.08937   1.10969   1.12569   1.14705
 Alpha virt. eigenvalues --    1.18360   1.19537   1.21015   1.21302   1.22568
 Alpha virt. eigenvalues --    1.23612   1.24672   1.25940   1.30330   1.30991
 Alpha virt. eigenvalues --    1.35104   1.37548   1.39771   1.41673   1.41890
 Alpha virt. eigenvalues --    1.43651   1.43903   1.46185   1.46470   1.48659
 Alpha virt. eigenvalues --    1.49135   1.50233   1.50898   1.53385   1.54282
 Alpha virt. eigenvalues --    1.56114   1.57157   1.57977   1.60675   1.62631
 Alpha virt. eigenvalues --    1.63458   1.66422   1.68254   1.68484   1.69713
 Alpha virt. eigenvalues --    1.70635   1.71121   1.72058   1.72415   1.73700
 Alpha virt. eigenvalues --    1.74244   1.75201   1.75940   1.76288   1.77350
 Alpha virt. eigenvalues --    1.77662   1.77989   1.79436   1.80500   1.80725
 Alpha virt. eigenvalues --    1.81266   1.82714   1.83627   1.84388   1.84435
 Alpha virt. eigenvalues --    1.86810   1.88285   1.88494   1.89918   1.90113
 Alpha virt. eigenvalues --    1.91222   1.92929   1.93456   1.93987   1.94201
 Alpha virt. eigenvalues --    1.95088   1.95551   1.96187   1.96584   1.96954
 Alpha virt. eigenvalues --    1.97644   1.98921   2.00248   2.00326   2.01433
 Alpha virt. eigenvalues --    2.02172   2.02576   2.04166   2.04180   2.04462
 Alpha virt. eigenvalues --    2.04725   2.05207   2.05349   2.06315   2.06768
 Alpha virt. eigenvalues --    2.07594   2.07738   2.09416   2.09717   2.10135
 Alpha virt. eigenvalues --    2.10272   2.10717   2.10969   2.11149   2.11669
 Alpha virt. eigenvalues --    2.12168   2.12862   2.13670   2.13898   2.14151
 Alpha virt. eigenvalues --    2.15058   2.16612   2.17317   2.17770   2.19591
 Alpha virt. eigenvalues --    2.20594   2.21556   2.24509   2.25330   2.26735
 Alpha virt. eigenvalues --    2.27805   2.28039   2.28815   2.30396   2.30426
 Alpha virt. eigenvalues --    2.32746   2.32997   2.33250   2.34412   2.36741
 Alpha virt. eigenvalues --    2.37028   2.38332   2.38724   2.38730   2.39192
 Alpha virt. eigenvalues --    2.41142   2.41332   2.42744   2.42893   2.44433
 Alpha virt. eigenvalues --    2.45232   2.45641   2.46907   2.47421   2.47811
 Alpha virt. eigenvalues --    2.49305   2.49833   2.49920   2.50597   2.51530
 Alpha virt. eigenvalues --    2.52846   2.54039   2.55237   2.55338   2.55541
 Alpha virt. eigenvalues --    2.56392   2.57084   2.57944   2.58843   2.60969
 Alpha virt. eigenvalues --    2.61520   2.61749   2.62912   2.63149   2.64887
 Alpha virt. eigenvalues --    2.65632   2.66901   2.67679   2.68069   2.68388
 Alpha virt. eigenvalues --    2.69884   2.70380   2.71680   2.72059   2.72217
 Alpha virt. eigenvalues --    2.72849   2.73193   2.74527   2.74815   2.75268
 Alpha virt. eigenvalues --    2.75445   2.76552   2.76796   2.77208   2.78368
 Alpha virt. eigenvalues --    2.79319   2.79787   2.80363   2.81165   2.81612
 Alpha virt. eigenvalues --    2.82188   2.83179   2.84253   2.84848   2.85280
 Alpha virt. eigenvalues --    2.86398   2.86688   2.87177   2.88291   2.88475
 Alpha virt. eigenvalues --    2.89268   2.89319   2.89845   2.91232   2.92306
 Alpha virt. eigenvalues --    2.92649   2.93317   2.94062   2.95100   2.95531
 Alpha virt. eigenvalues --    2.96815   2.96924   2.99637   3.00131   3.03103
 Alpha virt. eigenvalues --    3.06436   3.10828   3.16974   3.17030   3.18595
 Alpha virt. eigenvalues --    3.20425   3.20838   3.24513   3.25335   3.28206
 Alpha virt. eigenvalues --    3.31155   3.31884   3.32673   3.33165   3.33597
 Alpha virt. eigenvalues --    3.34476   3.36026   3.38110   3.39191   3.39788
 Alpha virt. eigenvalues --    3.40434   3.41283   3.42804   3.43093   3.44254
 Alpha virt. eigenvalues --    3.44543   3.45887   3.46090   3.46450   3.46563
 Alpha virt. eigenvalues --    3.46778   3.47465   3.48591   3.49480   3.50938
 Alpha virt. eigenvalues --    3.52446   3.54960   3.57436   3.58040   4.24041
 Alpha virt. eigenvalues --    4.32319   4.34761   4.38980   4.41713   4.47834
 Alpha virt. eigenvalues --    4.55806   4.59562   4.62829   4.64285   4.66350
 Alpha virt. eigenvalues --    4.67928   4.69147   4.75646   4.77002   4.83480
 Alpha virt. eigenvalues --    4.85967   4.89059   4.95898   4.99142   5.07748
 Alpha virt. eigenvalues --    5.10816
          Condensed to atoms (all electrons):
 Mulliken charges:
               1
     1  C   -0.310604
     2  C   -0.050055
     3  C   -0.050575
     4  C   -0.069531
     5  C   -0.055229
     6  C   -0.056058
     7  C   -0.069622
     8  C   -0.186526
     9  C   -0.182193
    10  C   -0.178118
    11  C   -0.052283
    12  C   -0.054305
    13  C   -0.181999
    14  C   -0.181542
    15  C   -0.071902
    16  C   -0.186816
    17  C   -0.080834
    18  C   -0.034251
    19  C   -0.047177
    20  C   -0.314154
    21  C   -0.321763
    22  C   -0.310936
    23  H    0.095446
    24  H    0.098012
    25  H    0.095597
    26  H    0.079668
    27  H    0.079637
    28  H    0.059332
    29  H    0.075527
    30  H    0.076112
    31  H    0.059358
    32  H    0.080369
    33  H    0.080645
    34  H    0.089298
    35  H    0.084929
    36  H    0.083904
    37  H    0.093066
    38  H    0.078439
    39  H    0.076269
    40  H    0.085714
    41  H    0.089902
    42  H    0.085337
    43  H    0.091182
    44  H    0.059431
    45  H    0.079640
    46  H    0.078097
    47  H    0.060474
    48  H    0.081571
    49  H    0.080675
    50  H    0.098025
    51  H    0.094894
    52  H    0.094706
    53  H    0.098865
    54  H    0.100507
    55  H    0.092647
    56  H    0.095371
    57  H    0.095750
    58  H    0.098078
 Sum of Mulliken charges =  -0.00000
 Mulliken charges with hydrogens summed into heavy atoms:
               1
     1  C   -0.021549
     2  C    0.029613
     3  C    0.029062
     4  C   -0.010200
     5  C    0.020298
     6  C    0.020054
     7  C   -0.010264
     8  C   -0.025512
     9  C   -0.007967
    10  C   -0.001148
    11  C    0.026156
    12  C    0.021964
    13  C   -0.006383
    14  C   -0.005022
    15  C   -0.012470
    16  C   -0.029079
    17  C   -0.020360
    18  C    0.047320
    19  C    0.033498
    20  C   -0.026528
    21  C   -0.029744
    22  C   -0.021738
 Electronic spatial extent (au):  <R**2>=           8489.7528
 Charge=              0.0000 electrons
 Dipole moment (field-independent basis, Debye):
    X=             -0.0988    Y=              0.0152    Z=             -0.0561  Tot=              0.1146
 Quadrupole moment (field-independent basis, Debye-Ang):
   XX=           -143.1359   YY=           -140.1855   ZZ=           -139.4703
   XY=             -0.5949   XZ=             -0.1917   YZ=             -0.1472
 Traceless Quadrupole moment (field-independent basis, Debye-Ang):
   XX=             -2.2053   YY=              0.7451   ZZ=              1.4602
   XY=             -0.5949   XZ=             -0.1917   YZ=             -0.1472
 Octapole moment (field-independent basis, Debye-Ang**2):
  XXX=             -7.7119  YYY=              0.1770  ZZZ=             -1.2452  XYY=             -0.4243
  XXY=              5.5940  XXZ=              1.0803  XZZ=              1.8735  YZZ=             -1.1987
  YYZ=             -1.0106  XYZ=              0.8295
 Hexadecapole moment (field-independent basis, Debye-Ang**3):
 XXXX=          -9494.5099 YYYY=          -1432.6003 ZZZZ=          -1045.2180 XXXY=            -33.7925
 XXXZ=             26.1283 YYYX=              3.3432 YYYZ=             -9.5993 ZZZX=            -12.7898
 ZZZY=              1.1737 XXYY=          -1830.9166 XXZZ=          -1740.1362 YYZZ=           -424.6750
 XXYZ=              7.0841 YYXZ=              7.0193 ZZXY=             -2.4357
 N-N= 2.006369969753D+03 E-N=-6.000878571767D+03  KE= 8.512818455893D+02
 Calling FoFJK, ICntrl=      2127 FMM=F ISym2X=0 I1Cent= 0 IOpClX= 0 NMat=1 NMatS=1 NMatT=0.
 ***** Axes restored to original set *****
 -------------------------------------------------------------------
 Center     Atomic                   Forces (Hartrees/Bohr)
 Number     Number              X              Y              Z
 -------------------------------------------------------------------
      1        6          -0.003192285    0.003066881    0.002982957
      2        6          -0.001882929    0.014602056    0.005171964
      3        6          -0.000461633   -0.014451571    0.006239413
      4        6           0.002932083   -0.016842792   -0.002360854
      5        6           0.003587534   -0.016910100    0.000091519
      6        6           0.002313446    0.017951632   -0.001925549
      7        6           0.001118438    0.016465747   -0.003630351
      8        6          -0.012734061   -0.001602544   -0.023964513
      9        6          -0.006531779    0.004673937   -0.007174656
     10        6           0.003615212    0.004900130    0.007175376
     11        6          -0.003773615    0.020250635    0.000700349
     12        6          -0.001955299   -0.016996662    0.002264878
     13        6           0.006283802   -0.004544584    0.008810455
     14        6          -0.005849952   -0.006091402   -0.008228727
     15        6          -0.000997992   -0.016601952    0.004949114
     16        6           0.011689186    0.001106663    0.025299703
     17        6           0.002298040    0.013729387    0.004572171
     18        6           0.000468851    0.014715163   -0.006151058
     19        6           0.007800646   -0.011665282    0.003406280
     20        6           0.003257919   -0.005390431   -0.003109546
     21        6           0.006553921    0.003912491   -0.008451378
     22        6          -0.002979986   -0.003076394    0.003057746
     23        1          -0.001769839   -0.009630486    0.000272106
     24        1           0.003355179    0.003656359    0.008820268
     25        1           0.001293564    0.002817715   -0.009959987
     26        1          -0.001772185   -0.002648121   -0.007408131
     27        1          -0.001553158    0.002020346   -0.007546142
     28        1           0.002348248    0.007570260    0.007795417
     29        1          -0.003378876    0.002146664    0.009742887
     30        1          -0.002830628   -0.001825152    0.010145067
     31        1           0.003161354   -0.006654339    0.008383048
     32        1           0.009982827    0.000327803    0.000523063
     33        1          -0.006422136    0.000171174    0.009480925
     34        1           0.002542220    0.002090810   -0.007558525
     35        1           0.000785808   -0.009447695    0.000870232
     36        1          -0.000135817   -0.009901530   -0.000231504
     37        1          -0.001392275    0.002819741    0.004806638
     38        1           0.004644640   -0.002513165   -0.008870247
     39        1           0.002905964    0.001272680   -0.010353099
     40        1          -0.000973060    0.009378785   -0.001061238
     41        1          -0.002823530   -0.002051521    0.007902277
     42        1          -0.000122237    0.009524555   -0.000155567
     43        1           0.003018916   -0.002437543   -0.007359234
     44        1          -0.002840422    0.006239326   -0.008467641
     45        1          -0.010922961   -0.000057783   -0.001722929
     46        1           0.006508246   -0.001306326   -0.009484576
     47        1          -0.003534710   -0.007330294   -0.007485092
     48        1          -0.009671969   -0.005851853    0.000559556
     49        1           0.001011543    0.005387907    0.006314924
     50        1          -0.004044503   -0.003916917   -0.008046970
     51        1           0.004042568    0.008868054   -0.000724019
     52        1          -0.001997291   -0.002897605    0.008974433
     53        1           0.002181379    0.008492779    0.005164666
     54        1           0.002845233   -0.009698791   -0.004713767
     55        1          -0.008778029    0.000749269    0.002891336
     56        1          -0.002671788    0.009399839   -0.000358011
     57        1           0.001790345   -0.003282449   -0.009770520
     58        1           0.003657831   -0.002683504    0.008905063
 -------------------------------------------------------------------
 Cartesian Forces:  Max     0.025299703 RMS     0.007278367

 GradGradGradGradGradGradGradGradGradGradGradGradGradGradGradGradGradGrad
 Berny optimization.
 FormGI is forming the generalized inverse of G from B-inverse, IUseBI=4.
 Internal  Forces:  Max     0.014165666 RMS     0.003586609
 Search for a local minimum.
 Step number   1 out of a maximum of  348
 All quantities printed in internal units (Hartrees-Bohrs-Radians)
 Mixed Optimization -- RFO/linear search
 Second derivative matrix not updated -- first step.
 ITU=  0
     Eigenvalues ---    0.00232   0.00239   0.00280   0.00294   0.00299
     Eigenvalues ---    0.00301   0.00505   0.00564   0.00607   0.00731
     Eigenvalues ---    0.00756   0.01268   0.01695   0.01797   0.01822
     Eigenvalues ---    0.02145   0.02307   0.02480   0.02654   0.02820
     Eigenvalues ---    0.02856   0.03072   0.03371   0.03484   0.03559
     Eigenvalues ---    0.03654   0.03721   0.03746   0.03837   0.03881
     Eigenvalues ---    0.03907   0.03995   0.04112   0.04193   0.04218
     Eigenvalues ---    0.04260   0.04300   0.04556   0.04671   0.04717
     Eigenvalues ---    0.04762   0.04847   0.04869   0.05086   0.05113
     Eigenvalues ---    0.05253   0.05260   0.05265   0.05323   0.05340
     Eigenvalues ---    0.05405   0.05447   0.05468   0.05520   0.05584
     Eigenvalues ---    0.05652   0.05672   0.05678   0.05685   0.05704
     Eigenvalues ---    0.05729   0.05752   0.05886   0.05947   0.06001
     Eigenvalues ---    0.07025   0.07041   0.07099   0.07343   0.07512
     Eigenvalues ---    0.07656   0.08187   0.08306   0.08325   0.08378
     Eigenvalues ---    0.08588   0.09124   0.09459   0.09651   0.09732
     Eigenvalues ---    0.09958   0.10142   0.10310   0.10692   0.11950
     Eigenvalues ---    0.12286   0.12391   0.12537   0.14092   0.14323
     Eigenvalues ---    0.16000   0.16000   0.16000   0.16000   0.16000
     Eigenvalues ---    0.16000   0.16000   0.16000   0.16000   0.16000
     Eigenvalues ---    0.16000   0.16000   0.16018   0.16178   0.16567
     Eigenvalues ---    0.19935   0.22273   0.22365   0.22468   0.22625
     Eigenvalues ---    0.23770   0.24028   0.24125   0.24225   0.25647
     Eigenvalues ---    0.26191   0.26380   0.26583   0.27044   0.27235
     Eigenvalues ---    0.27392   0.27404   0.27416   0.27636   0.27817
     Eigenvalues ---    0.27890   0.28484   0.28535   0.28545   0.28601
     Eigenvalues ---    0.28902   0.28950   0.31935   0.31975   0.32017
     Eigenvalues ---    0.32018   0.32042   0.32045   0.32061   0.32200
     Eigenvalues ---    0.32334   0.32340   0.32346   0.32378   0.32380
     Eigenvalues ---    0.32385   0.32389   0.32435   0.32469   0.32497
     Eigenvalues ---    0.32518   0.32519   0.32531   0.32531   0.32596
     Eigenvalues ---    0.32599   0.32605   0.32611   0.32707   0.32733
     Eigenvalues ---    0.32825   0.32876   0.32899   0.32899   0.32905
     Eigenvalues ---    0.32919   0.32964   0.33734
 RFO step:  Lambda=-2.12185778D-02 EMin= 2.31567285D-03
 Linear search not attempted -- first point.
 Maximum step size (   0.050) exceeded in Quadratic search.
    -- Step size scaled by   0.189
 Iteration  1 RMS(Cart)=  0.00534705 RMS(Int)=  0.00001092
 Iteration  2 RMS(Cart)=  0.00001598 RMS(Int)=  0.00000432
 Iteration  3 RMS(Cart)=  0.00000000 RMS(Int)=  0.00000432
 Variable       Old X    -DE/DX   Delta X   Delta X   Delta X     New X
                                 (Linear)    (Quad)   (Total)
    R1        2.90983   0.00026   0.00000   0.00016   0.00016   2.90999
    R2        2.09906  -0.00973   0.00000  -0.00530  -0.00530   2.09376
    R3        2.09569  -0.00983   0.00000  -0.00533  -0.00533   2.09036
    R4        2.09751  -0.00972   0.00000  -0.00529  -0.00529   2.09222
    R5        2.94602   0.01273   0.00000   0.00765   0.00765   2.95367
    R6        2.93305   0.00201   0.00000   0.00113   0.00113   2.93418
    R7        2.09360  -0.00775   0.00000  -0.00419  -0.00419   2.08941
    R8        2.93338   0.00176   0.00000   0.00100   0.00100   2.93439
    R9        2.91093   0.00005   0.00000   0.00003   0.00003   2.91096
   R10        2.09270  -0.00756   0.00000  -0.00408  -0.00408   2.08862
   R11        2.93919   0.00268   0.00000   0.00165   0.00165   2.94084
   R12        2.86491   0.01222   0.00000   0.00767   0.00767   2.87258
   R13        2.10154  -0.00991   0.00000  -0.00542  -0.00542   2.09611
   R14        2.94700   0.01297   0.00000   0.00813   0.00813   2.95512
   R15        2.92935  -0.00535   0.00000  -0.00327  -0.00327   2.92608
   R16        2.10733  -0.01031   0.00000  -0.00570  -0.00570   2.10163
   R17        2.93456   0.00318   0.00000   0.00196   0.00196   2.93651
   R18        2.92851  -0.00499   0.00000  -0.00324  -0.00324   2.92527
   R19        2.10810  -0.01046   0.00000  -0.00578  -0.00578   2.10232
   R20        2.86472   0.01241   0.00000   0.00777   0.00777   2.87249
   R21        2.10157  -0.00994   0.00000  -0.00544  -0.00544   2.09613
   R22        2.09994  -0.00991   0.00000  -0.00541  -0.00541   2.09453
   R23        2.10768  -0.01140   0.00000  -0.00630  -0.00630   2.10138
   R24        2.92556   0.00555   0.00000   0.00343   0.00344   2.92900
   R25        2.09194  -0.00820   0.00000  -0.00442  -0.00442   2.08752
   R26        2.10216  -0.00912   0.00000  -0.00500  -0.00500   2.09716
   R27        2.92054  -0.00257   0.00000  -0.00173  -0.00172   2.91882
   R28        2.10138  -0.00957   0.00000  -0.00524  -0.00524   2.09614
   R29        2.07781  -0.00572   0.00000  -0.00301  -0.00301   2.07480
   R30        2.94191   0.01417   0.00000   0.00883   0.00882   2.95073
   R31        2.94451   0.00269   0.00000   0.00147   0.00147   2.94598
   R32        2.10889  -0.01025   0.00000  -0.00567  -0.00567   2.10322
   R33        2.93047  -0.00511   0.00000  -0.00317  -0.00317   2.92730
   R34        2.93429   0.00316   0.00000   0.00216   0.00216   2.93645
   R35        2.10761  -0.01049   0.00000  -0.00580  -0.00580   2.10181
   R36        2.92527   0.00527   0.00000   0.00339   0.00339   2.92866
   R37        2.10225  -0.00915   0.00000  -0.00502  -0.00502   2.09724
   R38        2.09228  -0.00859   0.00000  -0.00463  -0.00463   2.08765
   R39        2.10237  -0.00918   0.00000  -0.00503  -0.00503   2.09734
   R40        2.09114  -0.00827   0.00000  -0.00445  -0.00445   2.08669
   R41        2.87547   0.01042   0.00000   0.00644   0.00644   2.88191
   R42        2.93430   0.00191   0.00000   0.00115   0.00115   2.93545
   R43        2.10145  -0.00979   0.00000  -0.00535  -0.00535   2.09609
   R44        2.86989   0.01251   0.00000   0.00831   0.00831   2.87821
   R45        2.10480  -0.01103   0.00000  -0.00607  -0.00607   2.09874
   R46        2.10813  -0.01155   0.00000  -0.00639  -0.00639   2.10174
   R47        2.93701   0.00306   0.00000   0.00167   0.00167   2.93868
   R48        2.10055  -0.00955   0.00000  -0.00522  -0.00522   2.09534
   R49        2.92547   0.01174   0.00000   0.00665   0.00666   2.93213
   R50        2.90107   0.00544   0.00000   0.00330   0.00330   2.90438
   R51        2.10963  -0.01060   0.00000  -0.00588  -0.00588   2.10375
   R52        2.90208   0.00239   0.00000   0.00146   0.00146   2.90354
   R53        2.09230  -0.00765   0.00000  -0.00412  -0.00412   2.08817
   R54        2.09761  -0.00974   0.00000  -0.00530  -0.00530   2.09231
   R55        2.09883  -0.00921   0.00000  -0.00502  -0.00502   2.09381
   R56        2.09883  -0.00911   0.00000  -0.00496  -0.00496   2.09387
   R57        2.09219  -0.00900   0.00000  -0.00485  -0.00485   2.08734
   R58        2.09741  -0.01038   0.00000  -0.00564  -0.00564   2.09177
   R59        2.09944  -0.00897   0.00000  -0.00489  -0.00489   2.09455
   R60        2.09905  -0.00972   0.00000  -0.00530  -0.00530   2.09375
   R61        2.09767  -0.00979   0.00000  -0.00533  -0.00533   2.09234
   R62        2.09523  -0.00973   0.00000  -0.00527  -0.00527   2.08997
    A1        1.91060   0.00060   0.00000   0.00082   0.00082   1.91142
    A2        1.95681   0.00194   0.00000   0.00170   0.00170   1.95851
    A3        1.92305   0.00432   0.00000   0.00461   0.00460   1.92765
    A4        1.88492  -0.00152   0.00000  -0.00182  -0.00182   1.88310
    A5        1.87842  -0.00183   0.00000  -0.00127  -0.00127   1.87715
    A6        1.90802  -0.00377   0.00000  -0.00430  -0.00430   1.90372
    A7        2.02907   0.00035   0.00000   0.00146   0.00146   2.03053
    A8        1.94440   0.00097   0.00000   0.00224   0.00224   1.94663
    A9        1.84557   0.00027   0.00000   0.00033   0.00034   1.84591
   A10        1.78929   0.00028   0.00000   0.00016   0.00016   1.78945
   A11        1.91201  -0.00051   0.00000  -0.00092  -0.00092   1.91109
   A12        1.94576  -0.00152   0.00000  -0.00362  -0.00362   1.94214
   A13        1.78766   0.00046   0.00000   0.00028   0.00028   1.78794
   A14        2.02990   0.00027   0.00000   0.00134   0.00134   2.03124
   A15        1.91366  -0.00059   0.00000  -0.00100  -0.00100   1.91265
   A16        1.94491   0.00079   0.00000   0.00201   0.00201   1.94691
   A17        1.94905  -0.00158   0.00000  -0.00374  -0.00374   1.94531
   A18        1.84142   0.00049   0.00000   0.00074   0.00074   1.84216
   A19        1.94419  -0.00015   0.00000  -0.00070  -0.00070   1.94349
   A20        1.77358  -0.00037   0.00000  -0.00057  -0.00057   1.77301
   A21        1.99930  -0.00083   0.00000  -0.00300  -0.00300   1.99630
   A22        1.75925   0.00048   0.00000   0.00121   0.00121   1.76046
   A23        1.97606  -0.00037   0.00000  -0.00142  -0.00143   1.97463
   A24        1.98765   0.00145   0.00000   0.00532   0.00532   1.99297
   A25        1.78657   0.00050   0.00000   0.00026   0.00026   1.78683
   A26        1.99756   0.00119   0.00000   0.00122   0.00122   1.99879
   A27        1.85192   0.00017   0.00000   0.00058   0.00058   1.85250
   A28        2.06217  -0.00102   0.00000   0.00015   0.00015   2.06231
   A29        1.88798   0.00075   0.00000   0.00122   0.00122   1.88921
   A30        1.86569  -0.00140   0.00000  -0.00318  -0.00317   1.86252
   A31        1.78948  -0.00000   0.00000  -0.00009  -0.00009   1.78939
   A32        2.06222  -0.00081   0.00000   0.00008   0.00007   2.06230
   A33        1.88652   0.00075   0.00000   0.00103   0.00103   1.88755
   A34        2.00393   0.00151   0.00000   0.00173   0.00173   2.00567
   A35        1.84538   0.00039   0.00000   0.00096   0.00096   1.84634
   A36        1.86332  -0.00164   0.00000  -0.00342  -0.00342   1.85990
[...]
     37          1           0       -0.950061    1.270814    0.967791
     38          1           0       -1.345115    0.925292   -2.021043
     39          1           0       -1.294343   -1.304372   -1.734276
     40          1           0       -1.229308   -2.471782    0.506067
     41          1           0       -1.049352   -0.920700    1.277599
     42          1           0        1.003496   -2.553527    0.227365
     43          1           0        0.867145   -1.304323   -0.978257
     44          1           0       -3.408450   -2.251275   -0.993065
     45          1           0       -4.839666   -0.192450   -1.921168
     46          1           0       -3.303351   -0.297021   -2.808614
     47          1           0       -3.425115    2.026613   -1.492986
     48          1           0       -5.044589    1.051500    0.048561
     49          1           0       -3.198503   -0.885890    1.386718
     50          1           0       -5.900166   -1.295680    0.002933
     51          1           0       -5.070688   -2.444800    1.062303
     52          1           0       -5.687448   -0.921823    1.716961
     53          1           0       -2.696130    1.499987    1.950848
     54          1           0       -3.684906    2.786900    1.250147
     55          1           0       -4.421008    1.569064    2.294172
     56          1           0        4.871258   -2.744005   -0.311611
     57          1           0        5.453678   -1.591616   -1.514189
     58          1           0        5.741014   -1.297245    0.203147
 ---------------------------------------------------------------------
 Rotational constants (GHZ):           0.6906315           0.1429193           0.1372599

 **********************************************************************

            Population analysis using the SCF Density.

 **********************************************************************

 Orbital symmetries:
       Occupied  (A) (A) (A) (A) (A) (A) (A) (A) (A) (A) (A) (A)
                 (A) (A) (A) (A) (A) (A) (A) (A) (A) (A) (A) (A)
                 (A) (A) (A) (A) (A) (A) (A) (A) (A) (A) (A) (A)
                 (A) (A) (A) (A) (A) (A) (A) (A) (A) (A) (A) (A)
                 (A) (A) (A) (A) (A) (A) (A) (A) (A) (A) (A) (A)
                 (A) (A) (A) (A) (A) (A) (A) (A) (A) (A) (A) (A)
                 (A) (A) (A) (A) (A) (A) (A) (A) (A) (A) (A) (A)
       Virtual   (A) (A) (A) (A) (A) (A) (A) (A) (A) (A) (A) (A)
                 (A) (A) (A) (A) (A) (A) (A) (A) (A) (A) (A) (A)
                 (A) (A) (A) (A) (A) (A) (A) (A) (A) (A) (A) (A)
                 (A) (A) (A) (A) (A) (A) (A) (A) (A) (A) (A) (A)
                 (A) (A) (A) (A) (A) (A) (A) (A) (A) (A) (A) (A)
                 (A) (A) (A) (A) (A) (A) (A) (A) (A) (A) (A) (A)
                 (A) (A) (A) (A) (A) (A) (A) (A) (A) (A) (A) (A)
                 (A) (A) (A) (A) (A) (A) (A) (A) (A) (A) (A) (A)
                 (A) (A) (A) (A) (A) (A) (A) (A) (A) (A) (A) (A)
                 (A) (A) (A) (A) (A) (A) (A) (A) (A) (A) (A) (A)
                 (A) (A) (A) (A) (A) (A) (A) (A) (A) (A) (A) (A)
                 (A) (A) (A) (A) (A) (A) (A) (A) (A) (A) (A) (A)
                 (A) (A) (A) (A) (A) (A) (A) (A) (A) (A) (A) (A)
                 (A) (A) (A) (A) (A) (A) (A) (A) (A) (A) (A) (A)
                 (A) (A) (A) (A) (A) (A) (A) (A) (A) (A) (A) (A)
                 (A) (A) (A) (A) (A) (A) (A) (A) (A) (A) (A) (A)
                 (A) (A) (A) (A) (A) (A) (A) (A) (A) (A) (A) (A)
                 (A) (A) (A) (A) (A) (A) (A) (A) (A) (A) (A) (A)
                 (A) (A) (A) (A) (A) (A) (A) (A) (A) (A) (A) (A)
                 (A) (A) (A) (A) (A) (A) (A) (A) (A) (A) (A) (A)
                 (A) (A) (A) (A) (A) (A) (A) (A) (A) (A) (A) (A)
                 (A) (A) (A) (A) (A) (A) (A) (A) (A) (A) (A) (A)
                 (A) (A) (A) (A) (A) (A) (A) (A) (A) (A) (A) (A)
                 (A) (A) (A) (A) (A) (A) (A) (A) (A) (A) (A) (A)
                 (A) (A) (A) (A) (A) (A) (A) (A) (A) (A) (A) (A)
                 (A) (A) (A) (A) (A) (A) (A) (A) (A) (A) (A) (A)
                 (A) (A) (A) (A) (A) (A) (A) (A) (A) (A) (A) (A)
                 (A) (A) (A) (A) (A) (A) (A) (A) (A) (A) (A) (A)
                 (A) (A) (A) (A) (A) (A) (A) (A) (A) (A) (A) (A)
                 (A) (A) (A) (A) (A) (A) (A) (A) (A) (A) (A) (A)
                 (A) (A) (A) (A) (A) (A) (A) (A) (A) (A) (A) (A)
                 (A) (A) (A) (A) (A) (A) (A) (A) (A) (A) (A) (A)
                 (A) (A) (A) (A) (A) (A) (A) (A) (A) (A) (A) (A)
                 (A) (A) (A) (A) (A) (A) (A) (A) (A) (A) (A) (A)
                 (A) (A) (A) (A) (A) (A) (A) (A) (A) (A) (A) (A)
                 (A) (A) (A) (A) (A) (A)
 The electronic state is 1-A.
 Alpha  occ. eigenvalues --  -10.17759 -10.17695 -10.17691 -10.17674 -10.17641
 Alpha  occ. eigenvalues --  -10.17637 -10.17616 -10.17572 -10.17572 -10.17470
 Alpha  occ. eigenvalues --  -10.17397 -10.17353 -10.17238 -10.17217 -10.17125
 Alpha  occ. eigenvalues --  -10.17069 -10.16936 -10.16837 -10.16823 -10.16790
 Alpha  occ. eigenvalues --  -10.16748 -10.16745  -0.86740  -0.86329  -0.79352
 Alpha  occ. eigenvalues --   -0.77029  -0.76593  -0.74379  -0.74009  -0.72671
 Alpha  occ. eigenvalues --   -0.70919  -0.69095  -0.66169  -0.64655  -0.64133
 Alpha  occ. eigenvalues --   -0.62926  -0.61369  -0.58950  -0.55412  -0.54566
 Alpha  occ. eigenvalues --   -0.54348  -0.54186  -0.50350  -0.49519  -0.49307
 Alpha  occ. eigenvalues --   -0.49001  -0.47388  -0.46514  -0.45023  -0.42897
 Alpha  occ. eigenvalues --   -0.42065  -0.41301  -0.41087  -0.41019  -0.40427
 Alpha  occ. eigenvalues --   -0.39637  -0.39616  -0.38963  -0.38668  -0.38400
 Alpha  occ. eigenvalues --   -0.38095  -0.37465  -0.36957  -0.36845  -0.35534
 Alpha  occ. eigenvalues --   -0.34935  -0.34280  -0.33382  -0.33196  -0.32883
 Alpha  occ. eigenvalues --   -0.32559  -0.32310  -0.31709  -0.31482  -0.31304
 Alpha  occ. eigenvalues --   -0.30830  -0.29550  -0.29393  -0.29088  -0.28087
 Alpha  occ. eigenvalues --   -0.27743  -0.27435  -0.26961  -0.26611
 Alpha virt. eigenvalues --    0.07493   0.07804   0.08086   0.09332   0.09789
 Alpha virt. eigenvalues --    0.10552   0.11146   0.11782   0.12534   0.12773
 Alpha virt. eigenvalues --    0.13894   0.13978   0.14686   0.15017   0.15369
 Alpha virt. eigenvalues --    0.15829   0.16100   0.16337   0.16554   0.16894
 Alpha virt. eigenvalues --    0.17415   0.17744   0.17917   0.18312   0.19169
 Alpha virt. eigenvalues --    0.19362   0.19419   0.19909   0.20321   0.20621
 Alpha virt. eigenvalues --    0.20689   0.20831   0.21104   0.21803   0.21974
 Alpha virt. eigenvalues --    0.22253   0.22337   0.22788   0.23050   0.23501
 Alpha virt. eigenvalues --    0.23909   0.24813   0.25168   0.25339   0.25625
 Alpha virt. eigenvalues --    0.26239   0.26339   0.27745   0.28183   0.28851
 Alpha virt. eigenvalues --    0.29775   0.30224   0.30733   0.30974   0.31389
 Alpha virt. eigenvalues --    0.32186   0.32968   0.34612   0.34932   0.36037
 Alpha virt. eigenvalues --    0.38337   0.41556   0.46877   0.49004   0.50658
 Alpha virt. eigenvalues --    0.51443   0.52053   0.52606   0.53291   0.53718
 Alpha virt. eigenvalues --    0.54456   0.55143   0.56189   0.57303   0.57713
 Alpha virt. eigenvalues --    0.58581   0.59537   0.60160   0.60684   0.60864
 Alpha virt. eigenvalues --    0.61476   0.62353   0.63294   0.64063   0.64859
 Alpha virt. eigenvalues --    0.65442   0.65924   0.66112   0.66488   0.67136
 Alpha virt. eigenvalues --    0.67631   0.67776   0.69021   0.70772   0.71367
 Alpha virt. eigenvalues --    0.72362   0.72786   0.73102   0.73631   0.74213
 Alpha virt. eigenvalues --    0.75467   0.76199   0.76734   0.78171   0.78313
 Alpha virt. eigenvalues --    0.78496   0.79019   0.79643   0.79978   0.81067
 Alpha virt. eigenvalues --    0.82407   0.82480   0.83211   0.83377   0.83588
 Alpha virt. eigenvalues --    0.84360   0.85234   0.85394   0.86079   0.87158
 Alpha virt. eigenvalues --    0.87311   0.87749   0.87884   0.88321   0.88517
 Alpha virt. eigenvalues --    0.88820   0.89039   0.89288   0.89609   0.90117
 Alpha virt. eigenvalues --    0.90753   0.90950   0.91718   0.92593   0.92690
 Alpha virt. eigenvalues --    0.93346   0.93957   0.94679   0.94830   0.95621
 Alpha virt. eigenvalues --    0.95802   0.96425   0.97005   0.97418   0.97547
 Alpha virt. eigenvalues --    0.98132   0.98456   0.99067   0.99837   1.00480
 Alpha virt. eigenvalues --    1.01459   1.02558   1.03077   1.04679   1.05980
 Alpha virt. eigenvalues --    1.07175   1.08405   1.09904   1.11031   1.13925
 Alpha virt. eigenvalues --    1.17731   1.19429   1.19865   1.21035   1.22705
 Alpha virt. eigenvalues --    1.23346   1.24217   1.25452   1.29293   1.30725
 Alpha virt. eigenvalues --    1.34787   1.37443   1.38729   1.41014   1.41583
 Alpha virt. eigenvalues --    1.42922   1.43605   1.45103   1.45941   1.48362
 Alpha virt. eigenvalues --    1.49239   1.49456   1.51066   1.52130   1.53945
 Alpha virt. eigenvalues --    1.56329   1.56732   1.57513   1.59831   1.62816
 Alpha virt. eigenvalues --    1.63503   1.65868   1.67133   1.68457   1.69125
 Alpha virt. eigenvalues --    1.69668   1.70596   1.71097   1.72684   1.73013
 Alpha virt. eigenvalues --    1.73616   1.74567   1.76097   1.76374   1.76883
 Alpha virt. eigenvalues --    1.77366   1.78293   1.79039   1.79867   1.80175
 Alpha virt. eigenvalues --    1.80801   1.81362   1.81967   1.83006   1.84364
 Alpha virt. eigenvalues --    1.86732   1.87741   1.88396   1.89724   1.90582
 Alpha virt. eigenvalues --    1.91297   1.92571   1.93435   1.93770   1.94385
 Alpha virt. eigenvalues --    1.94927   1.96180   1.96403   1.96625   1.97837
 Alpha virt. eigenvalues --    1.98262   1.99723   2.00505   2.00788   2.01060
 Alpha virt. eigenvalues --    2.02156   2.03124   2.03932   2.04685   2.04848
 Alpha virt. eigenvalues --    2.05825   2.05900   2.06079   2.06940   2.07528
 Alpha virt. eigenvalues --    2.07964   2.08239   2.09285   2.10639   2.11066
 Alpha virt. eigenvalues --    2.11359   2.11685   2.12025   2.12536   2.13286
 Alpha virt. eigenvalues --    2.14431   2.14529   2.14899   2.15426   2.15697
 Alpha virt. eigenvalues --    2.15763   2.16818   2.17560   2.18273   2.19612
 Alpha virt. eigenvalues --    2.20475   2.22435   2.24360   2.25591   2.27309
 Alpha virt. eigenvalues --    2.28244   2.28326   2.29676   2.30392   2.31294
 Alpha virt. eigenvalues --    2.32811   2.33480   2.34490   2.35272   2.36681
 Alpha virt. eigenvalues --    2.37685   2.38048   2.38783   2.39344   2.39538
 Alpha virt. eigenvalues --    2.40699   2.41837   2.42974   2.43537   2.44863
 Alpha virt. eigenvalues --    2.45424   2.45880   2.46697   2.47383   2.47721
 Alpha virt. eigenvalues --    2.49119   2.49853   2.50274   2.50836   2.51141
 Alpha virt. eigenvalues --    2.52625   2.54590   2.54804   2.55648   2.55723
 Alpha virt. eigenvalues --    2.56411   2.57217   2.57981   2.60151   2.60890
 Alpha virt. eigenvalues --    2.62389   2.62574   2.63778   2.64825   2.65810
 Alpha virt. eigenvalues --    2.66403   2.68024   2.68264   2.69504   2.69542
 Alpha virt. eigenvalues --    2.70536   2.70909   2.72276   2.73303   2.73795
 Alpha virt. eigenvalues --    2.74231   2.75190   2.75407   2.76019   2.76923
 Alpha virt. eigenvalues --    2.77504   2.78439   2.78815   2.79768   2.80025
 Alpha virt. eigenvalues --    2.80887   2.81214   2.81412   2.82372   2.82622
 Alpha virt. eigenvalues --    2.83850   2.84441   2.85855   2.86622   2.87079
 Alpha virt. eigenvalues --    2.87750   2.88003   2.88333   2.89638   2.90576
 Alpha virt. eigenvalues --    2.90995   2.91525   2.91692   2.92444   2.94148
 Alpha virt. eigenvalues --    2.94596   2.95192   2.95533   2.96463   2.96662
 Alpha virt. eigenvalues --    2.98002   2.98651   3.00959   3.01347   3.04346
 Alpha virt. eigenvalues --    3.07447   3.09922   3.18228   3.19801   3.19990
 Alpha virt. eigenvalues --    3.23144   3.23710   3.27578   3.28834   3.31363
 Alpha virt. eigenvalues --    3.33273   3.34831   3.35713   3.35760   3.36539
 Alpha virt. eigenvalues --    3.36635   3.38255   3.41254   3.42038   3.42428
 Alpha virt. eigenvalues --    3.43800   3.44532   3.45649   3.46115   3.46911
 Alpha virt. eigenvalues --    3.47056   3.48034   3.48868   3.49120   3.49429
 Alpha virt. eigenvalues --    3.49651   3.49715   3.51792   3.52803   3.53911
 Alpha virt. eigenvalues --    3.54902   3.57560   3.59849   3.60417   4.23392
 Alpha virt. eigenvalues --    4.32031   4.34269   4.38612   4.40562   4.47000
 Alpha virt. eigenvalues --    4.54713   4.59174   4.62203   4.64150   4.65405
 Alpha virt. eigenvalues --    4.67349   4.69210   4.74384   4.76079   4.82958
 Alpha virt. eigenvalues --    4.85689   4.89334   4.95192   4.97536   5.05501
 Alpha virt. eigenvalues --    5.08728
          Condensed to atoms (all electrons):
 Mulliken charges:
               1
     1  C   -0.315384
     2  C   -0.050559
     3  C   -0.051475
     4  C   -0.074022
     5  C   -0.055279
     6  C   -0.056931
     7  C   -0.074343
     8  C   -0.188065
     9  C   -0.184520
    10  C   -0.183356
    11  C   -0.053540
    12  C   -0.055685
    13  C   -0.184980
    14  C   -0.185631
    15  C   -0.077554
    16  C   -0.190173
    17  C   -0.082377
    18  C   -0.036654
    19  C   -0.045524
    20  C   -0.319880
    21  C   -0.323895
    22  C   -0.315585
    23  H    0.096579
    24  H    0.099326
    25  H    0.097901
    26  H    0.080650
    27  H    0.080809
    28  H    0.060819
    29  H    0.076850
    30  H    0.077402
    31  H    0.060574
    32  H    0.084798
    33  H    0.083921
    34  H    0.091013
    35  H    0.086755
    36  H    0.086496
    37  H    0.094110
    38  H    0.080405
    39  H    0.077163
    40  H    0.087133
    41  H    0.090456
    42  H    0.087236
    43  H    0.091650
    44  H    0.061354
    45  H    0.084098
    46  H    0.082396
    47  H    0.061364
    48  H    0.080981
    49  H    0.081056
    50  H    0.098653
    51  H    0.097394
    52  H    0.097538
    53  H    0.100635
    54  H    0.097222
    55  H    0.096818
    56  H    0.096478
    57  H    0.098056
    58  H    0.099323
 Sum of Mulliken charges =  -0.00000
 Mulliken charges with hydrogens summed into heavy atoms:
               1
     1  C   -0.021578
     2  C    0.030091
     3  C    0.029334
     4  C   -0.013204
     5  C    0.021572
     6  C    0.020471
     7  C   -0.013769
     8  C   -0.019346
     9  C   -0.006752
    10  C   -0.002750
    11  C    0.026865
    12  C    0.021478
    13  C   -0.007390
    14  C   -0.006745
    15  C   -0.016201
    16  C   -0.023679
    17  C   -0.021013
    18  C    0.044327
    19  C    0.035532
    20  C   -0.026294
    21  C   -0.029220
    22  C   -0.021728
 Electronic spatial extent (au):  <R**2>=           8585.6299
 Charge=             -0.0000 electrons
 Dipole moment (field-independent basis, Debye):
    X=             -0.0674    Y=              0.0014    Z=             -0.0593  Tot=              0.0898
 Quadrupole moment (field-independent basis, Debye-Ang):
   XX=           -141.7055   YY=           -139.3227   ZZ=           -139.3406
   XY=             -0.3663   XZ=             -0.1786   YZ=             -0.1341
 Traceless Quadrupole moment (field-independent basis, Debye-Ang):
   XX=             -1.5826   YY=              0.8002   ZZ=              0.7823
   XY=             -0.3663   XZ=             -0.1786   YZ=             -0.1341
 Octapole moment (field-independent basis, Debye-Ang**2):
  XXX=             -5.0066  YYY=              0.1410  ZZZ=             -0.9783  XYY=             -0.4473
  XXY=              3.2660  XXZ=              0.4098  XZZ=              1.2052  YZZ=             -0.7242
  YYZ=             -0.6292  XYZ=              0.5711
 Hexadecapole moment (field-independent basis, Debye-Ang**3):
 XXXX=          -9509.7617 YYYY=          -1445.4022 ZZZZ=          -1049.4602 XXXY=            -20.1666
 XXXZ=             15.1405 YYYX=              1.4006 YYYZ=             -9.1489 ZZZX=            -11.0750
 ZZZY=              2.1369 XXYY=          -1837.4835 XXZZ=          -1750.9530 YYZZ=           -427.6723
 XXYZ=              4.2198 YYXZ=              4.3970 ZZXY=             -1.6605
 N-N= 1.997824507057D+03 E-N=-5.984087287377D+03  KE= 8.516212592135D+02
 Unable to Open any file for archive entry.
 1\1\GINC-HPCS09\FOpt\RB3LYP\6-31G(d,p)\C22H36\Z002445\09-Dec-2025\0\\#
  opt=(maxstep=5) B3LYP/6-31G** SCF=(XQC,MaxCycle=200,noincore) Int=(Gr
 id=UltraFine)\\m2g_addpoly_chair\\0,1\C,-5.1473983048,1.2020102967,0.1
 072114749\C,-3.7385708059,0.5945749153,0.0645079126\C,-3.6539842773,-0
 .9851221664,0.1133606045\C,-2.8540344974,-1.316609446,-1.1786600311\C,
 -1.3635918619,-0.885750325,-1.0459468072\C,-1.4623662137,0.6968680711,
 -1.1202600674\C,-2.9927552883,0.9308269618,-1.2583088601\C,-3.39185373
 77,-0.2551727308,-2.1586531565\C,-0.7602206699,1.5158062833,-0.0272906
 785\C,0.7861321183,1.577756858,-0.1730054942\C,1.5556258509,0.99028601
 16,1.0186598033\C,1.5932918677,-0.5893828831,1.1693330191\C,0.93754033
 59,-1.4458560521,0.0724135567\C,-0.6138496032,-1.5217604357,0.13695791
 85\C,3.1053077766,-0.8599298958,1.4130256097\C,3.4852462177,0.37015870
 34,2.2666325085\C,3.0541009643,1.3866557714,1.1840537452\C,4.002797594
 6,0.9397438117,0.0348100605\C,3.9307724135,-0.6244251439,0.1147245768\
 C,5.3081529323,-1.2959006183,0.1373372439\C,3.8380184916,1.5296785635,
 -1.3684884094\C,-4.9909046445,-1.7368880663,0.1760493789\H,-5.08460376
 08,2.2955717791,0.0865576694\H,-5.7625845578,0.8938734314,-0.744372421
 1\H,-5.6835914736,0.9230436669,1.0198973958\H,-3.1931632631,1.00788409
 12,0.919619979\H,-3.0856743358,-1.2863392205,0.9992157273\H,-2.9621400
 739,-2.3616852687,-1.4891506432\H,-0.8562868054,-1.2348279614,-1.95536
 19108\H,-1.0176612167,1.0138548805,-2.0732799732\H,-3.2315028629,1.929
 8462087,-1.6394140939\H,-4.4680431309,-0.3291781389,-2.3422758579\H,-2
 .8772498767,-0.2565572298,-3.1260445353\H,-1.0201448105,1.140768585,0.
 9688007318\H,-1.1641017112,2.5355818494,-0.0665191623\H,1.0936066999,2
 .6242718553,-0.2892608851\H,1.0754032424,1.0860649388,-1.1052632132\H,
 1.0599610203,1.3904189326,1.9139603704\H,1.0797158687,-0.8500052026,2.
 1045488898\H,1.3397074321,-2.4618336247,0.1756561777\H,1.246426484,-1.
 1155156152,-0.9253570942\H,-0.9088730829,-2.5785039553,0.1690141923\H,
 -0.9569191664,-1.1001324098,1.0881093445\H,3.2885087323,-1.8400658379,
 1.866885876\H,4.5499826921,0.4263803246,2.5152847412\H,2.9077091135,0.
 4443875005,3.1945294819\H,3.1775568749,2.4445131105,1.4419152305\H,5.0
 070307655,1.2384426693,0.3703145616\H,3.3894579364,-1.0127947327,-0.75
 55473705\H,5.8802743794,-1.0086695355,1.0270316346\H,5.2203521506,-2.3
 881975874,0.1369859328\H,5.9004244208,-1.0109614102,-0.7400269476\H,2.
 9368670351,1.1787257513,-1.8760055793\H,3.8020393355,2.6246438367,-1.3
 41586309\H,4.6914741483,1.2478725096,-1.9960814832\H,-4.8110298732,-2.
 8166026733,0.2223258611\H,-5.5691893781,-1.4640641022,1.0644914138\H,-
 5.6213956107,-1.5478798995,-0.6986616406\\Version=ES64L-G16RevC.02\Sta
 te=1-A\HF=-860.0587618\RMSD=2.759e-09\RMSF=5.356e-06\Dipole=0.0230491,
 0.0065444,0.0259495\Quadrupole=-1.1137799,0.6521938,0.4615861,0.148617
 9,-0.4103897,0.100628\PG=C01 [X(C22H36)]\\@
 The archive entry for this job was punched.


 THE CHYMISTS ARE A STRANGE CLASS OF MORTALS IMPELLED
 BY AN ALMOST INSANE IMPULSE TO SEEK THEIR PLEASURE
 AMONG SMOKE AND VAPOR, SOOT AND FLAME, POISONS AND
 POVERTY; YET AMONG ALL THESE EVILS I SEEM TO LIVE
 SO SWEETLY, THAT I MAY DIE IF I WOULD CHANGE PLACES
 WITH THE PERSIAN KING.
   --  JOHANN JOACHIM BECHER, 1635-1682
 ACTA LABORATORII CHYMICA MONACENSIS, 1669
 Job cpu time:       0 days  2 hours  9 minutes  9.4 seconds.
 Elapsed time:       0 days  0 hours  4 minutes 28.7 seconds.
 File lengths (MBytes):  RWF=    168 Int=      0 D2E=      0 Chk=     24 Scr=      1
 Normal termination of Gaussian 16 at Tue Dec  9 15:57:23 2025.
