 Entering Gaussian System, Link 0=g16
 Input=addpoly_twistboat.com
 Output=addpoly_twistboat.log
 Initial command:
 /usr/local/gaussian16c02/g16/l1.exe "/scr/Gau-838715.inp" -scrdir="/scr/"
 Entering Link 1 = /usr/local/gaussian16c02/g16/l1.exe PID=    838716.
  
 Copyright (c) 1988-2021, Gaussian, Inc.  All Rights Reserved.
  
 This is part of the Gaussian(R) 16 program.  It is based on
 the Gaussian(R) 09 system (copyright 2009, Gaussian, Inc.),
 the Gaussian(R) 03 system (copyright 2003, Gaussian, Inc.),
 the Gaussian(R) 98 system (copyright 1998, Gaussian, Inc.),
 the Gaussian(R) 94 system (copyright 1995, Gaussian, Inc.),
 the Gaussian 92(TM) system (copyright 1992, Gaussian, Inc.),
 the Gaussian 90(TM) system (copyright 1990, Gaussian, Inc.),
 the Gaussian 88(TM) system (copyright 1988, Gaussian, Inc.),
 the Gaussian 86(TM) system (copyright 1986, Carnegie Mellon
 University), and the Gaussian 82(TM) system (copyright 1983,
 Carnegie Mellon University). Gaussian is a federally registered
 trademark of Gaussian, Inc.
  
 This software contains proprietary and confidential information,
 including trade secrets, belonging to Gaussian, Inc.
  
 This software is provided under written license and may be
 used, copied, transmitted, or stored only in accord with that
 written license.
  
 The following legend is applicable only to US Government
 contracts under FAR:
  
                    RESTRICTED RIGHTS LEGEND
  
 Use, reproduction and disclosure by the US Government is
 subject to restrictions as set forth in subparagraphs (a)
 and (c) of the Commercial Computer Software - Restricted
 Rights clause in FAR 52.227-19.
  
 Gaussian, Inc.
 340 Quinnipiac St., Bldg. 40, Wallingford CT 06492
  
  
 ---------------------------------------------------------------
 Warning -- This program may not be used in any manner that
 competes with the business of Gaussian, Inc. or will provide
 assistance to any competitor of Gaussian, Inc.  The licensee
 of this program is prohibited from giving any competitor of
 Gaussian, Inc. access to this program.  By using this program,
 the user acknowledges that Gaussian, Inc. is engaged in the
 business of creating and licensing software in the field of
 computational chemistry and represents and warrants to the
 licensee that it is not a competitor of Gaussian, Inc. and that
 it will not use this program in any manner prohibited above.
 ---------------------------------------------------------------
  

 Cite this work as:
 Gaussian 16, Revision C.02,
 M. J. Frisch, G. W. Trucks, H. B. Schlegel, G. E. Scuseria, 
 M. A. Robb, J. R. Cheeseman, G. Scalmani, V. Barone, 
 G. A. Petersson, H. Nakatsuji, X. Li, M. Caricato, A. V. Marenich, 
 J. Bloino, B. G. Janesko, R. Gomperts, B. Mennucci, H. P. Hratchian, 
 J. V. Ortiz, A. F. Izmaylov, J. L. Sonnenberg, D. Williams-Young, 
 F. Ding, F. Lipparini, F. Egidi, J. Goings, B. Peng, A. Petrone, 
 T. Henderson, D. Ranasinghe, V. G. Zakrzewski, J. Gao, N. Rega, 
 G. Zheng, W. Liang, M. Hada, M. Ehara, K. Toyota, R. Fukuda, 
 J. Hasegawa, M. Ishida, T. Nakajima, Y. Honda, O. Kitao, H. Nakai, 
 T. Vreven, K. Throssell, J. A. Montgomery, Jr., J. E. Peralta, 
 F. Ogliaro, M. J. Bearpark, J. J. Heyd, E. N. Brothers, K. N. Kudin, 
 V. N. Staroverov, T. A. Keith, R. Kobayashi, J. Normand, 
 K. Raghavachari, A. P. Rendell, J. C. Burant, S. S. Iyengar, 
 J. Tomasi, M. Cossi, J. M. Millam, M. Klene, C. Adamo, R. Cammi, 
 J. W. Ochterski, R. L. Martin, K. Morokuma, O. Farkas, 
 J. B. Foresman, and D. J. Fox, Gaussian, Inc., Wallingford CT, 2019.
 
 ******************************************
 Gaussian 16:  ES64L-G16RevC.02  7-Dec-2021
                 9-Dec-2025 
 ******************************************
 %chk=addpoly_twistboat
 %mem=4GB
 %nproc=32
 Will use up to   32 processors via shared memory.
 ----------------------------------------------------------------------
 # opt=(maxstep=5) B3LYP/6-31G** SCF=(XQC,MaxCycle=200,noincore) Int=(G
 rid=UltraFine)
 ----------------------------------------------------------------------
 1/8=5,18=20,19=15,26=4,38=1/1,3;
 2/9=110,12=2,17=6,18=5,40=1/2;
 3/5=1,6=6,7=101,11=2,25=1,30=1,71=1,74=-5,75=-5/1,2,3;
 4//1;
 5/5=4,7=200,8=3,13=1,38=5/2,8;
 6/7=2,8=2,9=2,10=2,28=1/1;
 7//1,2,3,16;
 1/8=5,18=20,19=15,26=4/3(2);
 2/9=110/2;
 99//99;
 2/9=110/2;
 3/5=1,6=6,7=101,11=2,25=1,30=1,71=1,74=-5,75=-5/1,2,3;
 4/5=5,16=3,69=1/1;
 5/5=4,7=200,8=3,13=1,38=5/2,8;
 7//1,2,3,16;
 1/8=5,18=20,19=15,26=4/3(-5);
 2/9=110/2;
 6/7=2,8=2,9=2,10=2,19=2,28=1/1;
 99/9=1/99;
 ---------------------
 m2g_addpoly_twistboat
 ---------------------
 Symbolic Z-matrix:
 Charge =  0 Multiplicity = 1
 C                     5.132     1.5417   -0.4674 
 C                     3.6981    1.1321   -0.0744 
 C                     3.5531    0.275     1.2184 
 C                     2.9175   -1.037     0.6868 
 C                     1.4256   -0.8343    0.3168 
 C                     1.5109    0.0701   -0.951 
 C                     3.0526    0.2168   -1.1512 
 C                     3.5294   -1.1494   -0.6956 
 C                     0.7263    1.4216   -0.9898 
 C                    -0.8124    1.3943   -0.7879 
 C                    -1.5175    0.0716   -1.1434 
 C                    -1.5564   -1.0399   -0.0557 
 C                    -0.9796   -0.7317    1.363 
 C                     0.5233   -0.3521    1.4725 
 C                    -3.0529   -1.4723   -0.0789 
 C                    -3.3682   -1.3115   -1.5597 
 C                    -3.0031    0.1625   -1.6007 
 C                    -4.0021    0.6995   -0.5379 
 C                    -3.9754   -0.3956    0.555 
 C                    -5.3754   -0.9485    0.8662 
 C                    -3.7801    2.1225   -0.0109 
 C                     4.8508   -0.0049    1.9967 
 H                     5.7981    0.669    -0.6186 
 H                     5.5689    2.1992    0.3131 
 H                     5.1051    2.1199   -1.4153 
 H                     3.1597    2.0877    0.0496 
 H                     2.8722    0.7905    1.9268 
 H                     3.0918   -1.9287    1.3287 
 H                     1.079    -1.8479    0.022 
 H                     1.1606   -0.5312   -1.8179 
 H                     3.3373    0.4664   -2.1967 
 H                     4.6341   -1.2666   -0.6806 
 H                     3.1031   -1.9842   -1.3001 
 H                     1.1082    2.1336   -0.2373 
 H                     0.9323    1.8834   -1.9804 
 H                    -1.2373    2.1992   -1.4254 
 H                    -1.0289    1.6867    0.2533 
 H                    -0.9897   -0.3277   -2.0372 
 H                    -1.0056   -1.921    -0.448 
 H                    -1.1494   -1.6387    1.9838 
 H                    -1.5333    0.0867    1.8575 
 H                     0.6213    0.7435    1.6107 
 H                     0.9041   -0.7962    2.4186 
 H                    -3.2181   -2.502     0.3072 
 H                    -2.7293   -1.9482   -2.2162 
 H                    -4.4318   -1.5121   -1.8207 
 H                    -3.1337    0.6212   -2.6049 
 H                    -5.0019    0.7183   -1.0334 
 H                    -3.5875   -0.0141    1.5155 
 H                    -5.301    -1.7502    1.6313 
 H                    -5.8671   -1.3665   -0.0364 
 H                    -6.0158   -0.1371    1.2728 
 H                    -3.0456    2.157     0.815 
 H                    -4.7353    2.5079    0.4048 
 H                    -3.4718    2.7988   -0.8349 
 H                     5.3035    0.9479    2.3423 
 H                     5.5881   -0.5634    1.3843 
 H                     4.6191   -0.6142    2.896 
 

 GradGradGradGradGradGradGradGradGradGradGradGradGradGradGradGradGradGrad
 Berny optimization.
 Initialization pass.
                           ----------------------------
                           !    Initial Parameters    !
                           ! (Angstroms and Degrees)  !
 --------------------------                            --------------------------
 ! Name  Definition              Value          Derivative Info.                !
 --------------------------------------------------------------------------------
 ! R1    R(1,2)                  1.5422         estimate D2E/DX2                !
 ! R2    R(1,23)                 1.1082         estimate D2E/DX2                !
 ! R3    R(1,24)                 1.1101         estimate D2E/DX2                !
 ! R4    R(1,25)                 1.1107         estimate D2E/DX2                !
 ! R5    R(2,3)                  1.5579         estimate D2E/DX2                !
 ! R6    R(2,7)                  1.5537         estimate D2E/DX2                !
 ! R7    R(2,26)                 1.1038         estimate D2E/DX2                !
 ! R8    R(3,4)                  1.5518         estimate D2E/DX2                !
 ! R9    R(3,22)                 1.5389         estimate D2E/DX2                !
 ! R10   R(3,27)                 1.1096         estimate D2E/DX2                !
 ! R11   R(4,5)                  1.5504         estimate D2E/DX2                !
 ! R12   R(4,8)                  1.5159         estimate D2E/DX2                !
 ! R13   R(4,28)                 1.1124         estimate D2E/DX2                !
 ! R14   R(5,6)                  1.5597         estimate D2E/DX2                !
 ! R15   R(5,14)                 1.5435         estimate D2E/DX2                !
 ! R16   R(5,29)                 1.111          estimate D2E/DX2                !
 ! R17   R(6,7)                  1.5616         estimate D2E/DX2                !
 ! R18   R(6,9)                  1.5632         estimate D2E/DX2                !
 ! R19   R(6,30)                 1.1117         estimate D2E/DX2                !
 ! R20   R(7,8)                  1.517          estimate D2E/DX2                !
 ! R21   R(7,31)                 1.1119         estimate D2E/DX2                !
 ! R22   R(8,32)                 1.111          estimate D2E/DX2                !
 ! R23   R(8,33)                 1.1154         estimate D2E/DX2                !
 ! R24   R(9,10)                 1.5521         estimate D2E/DX2                !
 ! R25   R(9,34)                 1.1041         estimate D2E/DX2                !
 ! R26   R(9,35)                 1.1122         estimate D2E/DX2                !
 ! R27   R(10,11)                1.5405         estimate D2E/DX2                !
 ! R28   R(10,36)                1.1112         estimate D2E/DX2                !
 ! R29   R(10,37)                1.1029         estimate D2E/DX2                !
 ! R30   R(11,12)                1.5556         estimate D2E/DX2                !
 ! R31   R(11,17)                1.557          estimate D2E/DX2                !
 ! R32   R(11,38)                1.1122         estimate D2E/DX2                !
 ! R33   R(12,13)                1.5622         estimate D2E/DX2                !
 ! R34   R(12,15)                1.5579         estimate D2E/DX2                !
 ! R35   R(12,39)                1.1107         estimate D2E/DX2                !
 ! R36   R(13,14)                1.554          estimate D2E/DX2                !
 ! R37   R(13,40)                1.1121         estimate D2E/DX2                !
 ! R38   R(13,41)                1.1049         estimate D2E/DX2                !
 ! R39   R(14,42)                1.1086         estimate D2E/DX2                !
 ! R40   R(14,43)                1.1124         estimate D2E/DX2                !
 ! R41   R(15,16)                1.5225         estimate D2E/DX2                !
 ! R42   R(15,19)                1.5531         estimate D2E/DX2                !
 ! R43   R(15,44)                1.112          estimate D2E/DX2                !
 ! R44   R(16,17)                1.5191         estimate D2E/DX2                !
 ! R45   R(16,45)                1.1156         estimate D2E/DX2                !
 ! R46   R(16,46)                1.1134         estimate D2E/DX2                !
 ! R47   R(17,18)                1.5543         estimate D2E/DX2                !
 ! R48   R(17,47)                1.1117         estimate D2E/DX2                !
 ! R49   R(18,19)                1.5474         estimate D2E/DX2                !
 ! R50   R(18,21)                1.5336         estimate D2E/DX2                !
 ! R51   R(18,48)                1.116          estimate D2E/DX2                !
 ! R52   R(19,20)                1.5371         estimate D2E/DX2                !
 ! R53   R(19,49)                1.1039         estimate D2E/DX2                !
 ! R54   R(20,50)                1.1107         estimate D2E/DX2                !
 ! R55   R(20,51)                1.1096         estimate D2E/DX2                !
 ! R56   R(20,52)                1.1108         estimate D2E/DX2                !
 ! R57   R(21,53)                1.1058         estimate D2E/DX2                !
 ! R58   R(21,54)                1.1107         estimate D2E/DX2                !
 ! R59   R(21,55)                1.1097         estimate D2E/DX2                !
 ! R60   R(22,56)                1.11           estimate D2E/DX2                !
 ! R61   R(22,57)                1.1093         estimate D2E/DX2                !
 ! R62   R(22,58)                1.1107         estimate D2E/DX2                !
 ! A1    A(2,1,23)             112.6108         estimate D2E/DX2                !
 ! A2    A(2,1,24)             110.125          estimate D2E/DX2                !
 ! A3    A(2,1,25)             109.4657         estimate D2E/DX2                !
 ! A4    A(23,1,24)            109.0128         estimate D2E/DX2                !
 ! A5    A(23,1,25)            107.9431         estimate D2E/DX2                !
 ! A6    A(24,1,25)            107.5323         estimate D2E/DX2                !
 ! A7    A(1,2,3)              116.3684         estimate D2E/DX2                !
 ! A8    A(1,2,7)              111.4782         estimate D2E/DX2                !
 ! A9    A(1,2,26)             104.6082         estimate D2E/DX2                !
 ! A10   A(3,2,7)              102.2602         estimate D2E/DX2                !
 ! A11   A(3,2,26)             109.7352         estimate D2E/DX2                !
 ! A12   A(7,2,26)             112.6573         estimate D2E/DX2                !
 ! A13   A(2,3,4)              102.6505         estimate D2E/DX2                !
 ! A14   A(2,3,22)             116.1859         estimate D2E/DX2                !
 ! A15   A(2,3,27)             109.3487         estimate D2E/DX2                !
 ! A16   A(4,3,22)             111.4007         estimate D2E/DX2                !
 ! A17   A(4,3,27)             111.1105         estimate D2E/DX2                !
 ! A18   A(22,3,27)            106.2057         estimate D2E/DX2                !
 ! A19   A(3,4,5)              111.4298         estimate D2E/DX2                !
 ! A20   A(3,4,8)              102.1082         estimate D2E/DX2                !
 ! A21   A(3,4,28)             114.574          estimate D2E/DX2                !
 ! A22   A(5,4,8)              100.3978         estimate D2E/DX2                !
 ! A23   A(5,4,28)             113.158          estimate D2E/DX2                !
 ! A24   A(8,4,28)             113.7977         estimate D2E/DX2                !
 ! A25   A(4,5,6)              102.5431         estimate D2E/DX2                !
 ! A26   A(4,5,14)             115.1308         estimate D2E/DX2                !
 ! A27   A(4,5,29)             104.1366         estimate D2E/DX2                !
 ! A28   A(6,5,14)             117.3525         estimate D2E/DX2                !
 ! A29   A(6,5,29)             109.2925         estimate D2E/DX2                !
 ! A30   A(14,5,29)            107.5368         estimate D2E/DX2                !
 ! A31   A(5,6,7)              102.2799         estimate D2E/DX2                !
 ! A32   A(5,6,9)              119.6078         estimate D2E/DX2                !
 ! A33   A(5,6,30)             107.6384         estimate D2E/DX2                !
 ! A34   A(7,6,9)              114.2758         estimate D2E/DX2                !
 ! A35   A(7,6,30)             105.1855         estimate D2E/DX2                !
 ! A36   A(9,6,30)             106.8656         estimate D2E/DX2                !
 ! A37   A(2,7,6)              112.1277         estimate D2E/DX2                !
 ! A38   A(2,7,8)              101.059          estimate D2E/DX2                !
 ! A39   A(2,7,31)             114.3955         estimate D2E/DX2                !
 ! A40   A(6,7,8)              100.7891         estimate D2E/DX2                !
 ! A41   A(6,7,31)             113.2295         estimate D2E/DX2                !
 ! A42   A(8,7,31)             113.832          estimate D2E/DX2                !
 ! A43   A(4,8,7)               94.6017         estimate D2E/DX2                !
 ! A44   A(4,8,32)             113.3822         estimate D2E/DX2                !
 ! A45   A(4,8,33)             113.294          estimate D2E/DX2                !
 ! A46   A(7,8,32)             114.3035         estimate D2E/DX2                !
 ! A47   A(7,8,33)             113.0256         estimate D2E/DX2                !
 ! A48   A(32,8,33)            107.9629         estimate D2E/DX2                !
 ! A49   A(6,9,10)             118.6289         estimate D2E/DX2                !
 ! A50   A(6,9,34)             111.5309         estimate D2E/DX2                !
 ! A51   A(6,9,35)             106.7455         estimate D2E/DX2                !
 ! A52   A(10,9,34)            105.4017         estimate D2E/DX2                !
 ! A53   A(10,9,35)            107.8651         estimate D2E/DX2                !
 ! A54   A(34,9,35)            105.9745         estimate D2E/DX2                !
 ! A55   A(9,10,11)            116.0297         estimate D2E/DX2                !
 ! A56   A(9,10,36)            106.9596         estimate D2E/DX2                !
 ! A57   A(9,10,37)            108.2239         estimate D2E/DX2                !
 ! A58   A(11,10,36)           108.3323         estimate D2E/DX2                !
 ! A59   A(11,10,37)           110.8326         estimate D2E/DX2                !
 ! A60   A(36,10,37)           105.9319         estimate D2E/DX2                !
 ! A61   A(10,11,12)           117.6181         estimate D2E/DX2                !
 ! A62   A(10,11,17)           117.0239         estimate D2E/DX2                !
 ! A63   A(10,11,38)           106.0526         estimate D2E/DX2                !
 ! A64   A(12,11,17)           102.8974         estimate D2E/DX2                !
 ! A65   A(12,11,38)           108.4972         estimate D2E/DX2                !
 ! A66   A(17,11,38)           103.7522         estimate D2E/DX2                !
 ! A67   A(11,12,13)           118.9983         estimate D2E/DX2                !
 ! A68   A(11,12,15)           102.2348         estimate D2E/DX2                !
 ! A69   A(11,12,39)           107.9053         estimate D2E/DX2                !
 ! A70   A(13,12,15)           115.0217         estimate D2E/DX2                !
 ! A71   A(13,12,39)           107.1078         estimate D2E/DX2                !
 ! A72   A(15,12,39)           104.5323         estimate D2E/DX2                !
 ! A73   A(12,13,14)           117.9878         estimate D2E/DX2                !
 ! A74   A(12,13,40)           106.8377         estimate D2E/DX2                !
 ! A75   A(12,13,41)           111.5636         estimate D2E/DX2                !
 ! A76   A(14,13,40)           107.9114         estimate D2E/DX2                !
 ! A77   A(14,13,41)           105.7941         estimate D2E/DX2                !
 ! A78   A(40,13,41)           106.1245         estimate D2E/DX2                !
 ! A79   A(5,14,13)            115.8683         estimate D2E/DX2                !
 ! A80   A(5,14,42)            110.5122         estimate D2E/DX2                !
 ! A81   A(5,14,43)            108.1797         estimate D2E/DX2                !
 ! A82   A(13,14,42)           109.6143         estimate D2E/DX2                !
 ! A83   A(13,14,43)           107.0673         estimate D2E/DX2                !
 ! A84   A(42,14,43)           104.9671         estimate D2E/DX2                !
 ! A85   A(12,15,16)           100.6088         estimate D2E/DX2                !
 ! A86   A(12,15,19)           111.8435         estimate D2E/DX2                !
 ! A87   A(12,15,44)           113.2368         estimate D2E/DX2                !
 ! A88   A(16,15,19)           101.5805         estimate D2E/DX2                !
 ! A89   A(16,15,44)           113.8733         estimate D2E/DX2                !
 ! A90   A(19,15,44)           114.3291         estimate D2E/DX2                !
 ! A91   A(15,16,17)            94.5286         estimate D2E/DX2                !
 ! A92   A(15,16,45)           113.1707         estimate D2E/DX2                !
 ! A93   A(15,16,46)           114.0043         estimate D2E/DX2                !
 ! A94   A(17,16,45)           113.5941         estimate D2E/DX2                !
 ! A95   A(17,16,46)           113.459          estimate D2E/DX2                !
 ! A96   A(45,16,46)           107.8371         estimate D2E/DX2                !
 ! A97   A(11,17,16)            99.482          estimate D2E/DX2                !
 ! A98   A(11,17,18)           115.6314         estimate D2E/DX2                !
 ! A99   A(11,17,47)           113.6702         estimate D2E/DX2                !
 ! A100  A(16,17,18)            99.3407         estimate D2E/DX2                !
 ! A101  A(16,17,47)           113.36           estimate D2E/DX2                !
 ! A102  A(18,17,47)           113.5527         estimate D2E/DX2                !
 ! A103  A(17,18,19)           103.1408         estimate D2E/DX2                !
 ! A104  A(17,18,21)           117.5486         estimate D2E/DX2                !
 ! A105  A(17,18,48)           106.1426         estimate D2E/DX2                !
 ! A106  A(19,18,21)           114.2971         estimate D2E/DX2                !
 ! A107  A(19,18,48)           109.9359         estimate D2E/DX2                !
 ! A108  A(21,18,48)           105.4635         estimate D2E/DX2                !
 ! A109  A(15,19,18)           102.2749         estimate D2E/DX2                !
 ! A110  A(15,19,20)           111.9793         estimate D2E/DX2                !
 ! A111  A(15,19,49)           112.7061         estimate D2E/DX2                !
 ! A112  A(18,19,20)           112.4487         estimate D2E/DX2                !
 ! A113  A(18,19,49)           112.0879         estimate D2E/DX2                !
 ! A114  A(20,19,49)           105.5578         estimate D2E/DX2                !
 ! A115  A(19,20,50)           109.761          estimate D2E/DX2                !
 ! A116  A(19,20,51)           111.9896         estimate D2E/DX2                !
 ! A117  A(19,20,52)           109.6623         estimate D2E/DX2                !
 ! A118  A(50,20,51)           108.5492         estimate D2E/DX2                !
 ! A119  A(50,20,52)           108.2842         estimate D2E/DX2                !
 ! A120  A(51,20,52)           108.5099         estimate D2E/DX2                !
 ! A121  A(18,21,53)           112.4424         estimate D2E/DX2                !
 ! A122  A(18,21,54)           109.0305         estimate D2E/DX2                !
 ! A123  A(18,21,55)           110.5208         estimate D2E/DX2                !
 ! A124  A(53,21,54)           106.3117         estimate D2E/DX2                !
 ! A125  A(53,21,55)           110.5512         estimate D2E/DX2                !
 ! A126  A(54,21,55)           107.7798         estimate D2E/DX2                !
 ! A127  A(3,22,56)            110.197          estimate D2E/DX2                !
 ! A128  A(3,22,57)            111.8916         estimate D2E/DX2                !
 ! A129  A(3,22,58)            109.4729         estimate D2E/DX2                !
 ! A130  A(56,22,57)           109.4488         estimate D2E/DX2                !
 ! A131  A(56,22,58)           107.6893         estimate D2E/DX2                !
 ! A132  A(57,22,58)           108.0256         estimate D2E/DX2                !
 ! D1    D(23,1,2,3)            58.2812         estimate D2E/DX2                !
 ! D2    D(23,1,2,7)           -58.4463         estimate D2E/DX2                !
 ! D3    D(23,1,2,26)          179.5248         estimate D2E/DX2                !
 ! D4    D(24,1,2,3)           -63.6208         estimate D2E/DX2                !
 ! D5    D(24,1,2,7)           179.6516         estimate D2E/DX2                !
 ! D6    D(24,1,2,26)           57.6228         estimate D2E/DX2                !
 ! D7    D(25,1,2,3)           178.3578         estimate D2E/DX2                !
 ! D8    D(25,1,2,7)            61.6303         estimate D2E/DX2                !
 ! D9    D(25,1,2,26)          -60.3986         estimate D2E/DX2                !
 ! D10   D(1,2,3,4)           -118.7766         estimate D2E/DX2                !
 ! D11   D(1,2,3,22)             3.0341         estimate D2E/DX2                !
 ! D12   D(1,2,3,27)           123.1865         estimate D2E/DX2                !
 ! D13   D(7,2,3,4)              2.9541         estimate D2E/DX2                !
 ! D14   D(7,2,3,22)           124.7647         estimate D2E/DX2                !
 ! D15   D(7,2,3,27)          -115.0829         estimate D2E/DX2                !
 ! D16   D(26,2,3,4)           122.7404         estimate D2E/DX2                !
 ! D17   D(26,2,3,22)         -115.449          estimate D2E/DX2                !
 ! D18   D(26,2,3,27)            4.7034         estimate D2E/DX2                !
 ! D19   D(1,2,7,6)           -166.3524         estimate D2E/DX2                !
 ! D20   D(1,2,7,8)             87.0664         estimate D2E/DX2                !
 ! D21   D(1,2,7,31)           -35.6652         estimate D2E/DX2                !
 ! D22   D(3,2,7,6)             68.6229         estimate D2E/DX2                !
 ! D23   D(3,2,7,8)            -37.9583         estimate D2E/DX2                !
 ! D24   D(3,2,7,31)          -160.6898         estimate D2E/DX2                !
 ! D25   D(26,2,7,6)           -49.0979         estimate D2E/DX2                !
 ! D26   D(26,2,7,8)          -155.6792         estimate D2E/DX2                !
 ! D27   D(26,2,7,31)           81.5893         estimate D2E/DX2                !
 ! D28   D(2,3,4,5)            -73.3381         estimate D2E/DX2                !
 ! D29   D(2,3,4,8)             33.0714         estimate D2E/DX2                !
 ! D30   D(2,3,4,28)           156.5684         estimate D2E/DX2                !
 ! D31   D(22,3,4,5)           161.6518         estimate D2E/DX2                !
 ! D32   D(22,3,4,8)           -91.9388         estimate D2E/DX2                !
 ! D33   D(22,3,4,28)           31.5583         estimate D2E/DX2                !
 ! D34   D(27,3,4,5)            43.4469         estimate D2E/DX2                !
 ! D35   D(27,3,4,8)           149.8563         estimate D2E/DX2                !
 ! D36   D(27,3,4,28)          -86.6466         estimate D2E/DX2                !
 ! D37   D(2,3,22,56)           61.3198         estimate D2E/DX2                !
 ! D38   D(2,3,22,57)          -60.6972         estimate D2E/DX2                !
 ! D39   D(2,3,22,58)          179.5801         estimate D2E/DX2                !
 ! D40   D(4,3,22,56)          178.3749         estimate D2E/DX2                !
 ! D41   D(4,3,22,57)           56.3579         estimate D2E/DX2                !
 ! D42   D(4,3,22,58)          -63.3648         estimate D2E/DX2                !
 ! D43   D(27,3,22,56)         -60.5106         estimate D2E/DX2                !
 ! D44   D(27,3,22,57)         177.4724         estimate D2E/DX2                !
 ! D45   D(27,3,22,58)          57.7497         estimate D2E/DX2                !
 ! D46   D(3,4,5,6)             69.8135         estimate D2E/DX2                !
 ! D47   D(3,4,5,14)           -58.8156         estimate D2E/DX2                !
 ! D48   D(3,4,5,29)          -176.2907         estimate D2E/DX2                !
 ! D49   D(8,4,5,6)            -37.7114         estimate D2E/DX2                !
 ! D50   D(8,4,5,14)          -166.3405         estimate D2E/DX2                !
 ! D51   D(8,4,5,29)            76.1844         estimate D2E/DX2                !
 ! D52   D(28,4,5,6)          -159.3584         estimate D2E/DX2                !
 ! D53   D(28,4,5,14)           72.0124         estimate D2E/DX2                !
 ! D54   D(28,4,5,29)          -45.4627         estimate D2E/DX2                !
 ! D55   D(3,4,8,7)            -55.8832         estimate D2E/DX2                !
 ! D56   D(3,4,8,32)            63.106          estimate D2E/DX2                !
 ! D57   D(3,4,8,33)          -173.392          estimate D2E/DX2                !
 ! D58   D(5,4,8,7)             58.9059         estimate D2E/DX2                !
 ! D59   D(5,4,8,32)           177.895          estimate D2E/DX2                !
 ! D60   D(5,4,8,33)           -58.603          estimate D2E/DX2                !
 ! D61   D(28,4,8,7)          -179.9019         estimate D2E/DX2                !
 ! D62   D(28,4,8,32)          -60.9128         estimate D2E/DX2                !
 ! D63   D(28,4,8,33)           62.5893         estimate D2E/DX2                !
 ! D64   D(4,5,6,7)              1.7691         estimate D2E/DX2                !
 ! D65   D(4,5,6,9)           -125.6497         estimate D2E/DX2                !
 ! D66   D(4,5,6,30)           112.2878         estimate D2E/DX2                !
 ! D67   D(14,5,6,7)           128.9926         estimate D2E/DX2                !
 ! D68   D(14,5,6,9)             1.5738         estimate D2E/DX2                !
 ! D69   D(14,5,6,30)         -120.4887         estimate D2E/DX2                !
 ! D70   D(29,5,6,7)          -108.289          estimate D2E/DX2                !
 ! D71   D(29,5,6,9)           124.2922         estimate D2E/DX2                !
 ! D72   D(29,5,6,30)            2.2297         estimate D2E/DX2                !
 ! D73   D(4,5,14,13)         -153.6894         estimate D2E/DX2                !
 ! D74   D(4,5,14,42)           80.8787         estimate D2E/DX2                !
 ! D75   D(4,5,14,43)          -33.5207         estimate D2E/DX2                !
 ! D76   D(6,5,14,13)           85.4643         estimate D2E/DX2                !
 ! D77   D(6,5,14,42)          -39.9676         estimate D2E/DX2                !
 ! D78   D(6,5,14,43)         -154.3669         estimate D2E/DX2                !
 ! D79   D(29,5,14,13)         -38.1486         estimate D2E/DX2                !
 ! D80   D(29,5,14,42)        -163.5805         estimate D2E/DX2                !
 ! D81   D(29,5,14,43)          82.0202         estimate D2E/DX2                !
 ! D82   D(5,6,7,2)            -72.0371         estimate D2E/DX2                !
 ! D83   D(5,6,7,8)             34.7181         estimate D2E/DX2                !
 ! D84   D(5,6,7,31)           156.6833         estimate D2E/DX2                !
 ! D85   D(9,6,7,2)             58.7192         estimate D2E/DX2                !
 ! D86   D(9,6,7,8)            165.4745         estimate D2E/DX2                !
 ! D87   D(9,6,7,31)           -72.5603         estimate D2E/DX2                !
 ! D88   D(30,6,7,2)           175.6042         estimate D2E/DX2                !
 ! D89   D(30,6,7,8)           -77.6406         estimate D2E/DX2                !
 ! D90   D(30,6,7,31)           44.3247         estimate D2E/DX2                !
 ! D91   D(5,6,9,10)           -57.7804         estimate D2E/DX2                !
 ! D92   D(5,6,9,34)            64.9469         estimate D2E/DX2                !
 ! D93   D(5,6,9,35)          -179.7336         estimate D2E/DX2                !
 ! D94   D(7,6,9,10)          -179.4249         estimate D2E/DX2                !
 ! D95   D(7,6,9,34)           -56.6976         estimate D2E/DX2                !
 ! D96   D(7,6,9,35)            58.6219         estimate D2E/DX2                !
 ! D97   D(30,6,9,10)           64.6624         estimate D2E/DX2                !
 ! D98   D(30,6,9,34)         -172.6103         estimate D2E/DX2                !
 ! D99   D(30,6,9,35)          -57.2908         estimate D2E/DX2                !
 ! D100  D(2,7,8,4)             57.6557         estimate D2E/DX2                !
 ! D101  D(2,7,8,32)           -60.5872         estimate D2E/DX2                !
 ! D102  D(2,7,8,33)           175.384          estimate D2E/DX2                !
 ! D103  D(6,7,8,4)            -57.6819         estimate D2E/DX2                !
 ! D104  D(6,7,8,32)          -175.9247         estimate D2E/DX2                !
 ! D105  D(6,7,8,33)            60.0465         estimate D2E/DX2                !
 ! D106  D(31,7,8,4)          -179.2233         estimate D2E/DX2                !
 ! D107  D(31,7,8,32)           62.5339         estimate D2E/DX2                !
 ! D108  D(31,7,8,33)          -61.4949         estimate D2E/DX2                !
 ! D109  D(6,9,10,11)          -24.5972         estimate D2E/DX2                !
 ! D110  D(6,9,10,36)         -145.5868         estimate D2E/DX2                !
 ! D111  D(6,9,10,37)          100.6764         estimate D2E/DX2                !
 ! D112  D(34,9,10,11)        -150.3348         estimate D2E/DX2                !
 ! D113  D(34,9,10,36)          88.6756         estimate D2E/DX2                !
 ! D114  D(34,9,10,37)         -25.0612         estimate D2E/DX2                !
 ! D115  D(35,9,10,11)          96.7906         estimate D2E/DX2                !
 ! D116  D(35,9,10,36)         -24.199          estimate D2E/DX2                !
 ! D117  D(35,9,10,37)        -137.9358         estimate D2E/DX2                !
 ! D118  D(9,10,11,12)          84.5856         estimate D2E/DX2                !
 ! D119  D(9,10,11,17)        -152.0724         estimate D2E/DX2                !
 ! D120  D(9,10,11,38)         -36.9566         estimate D2E/DX2                !
 ! D121  D(36,10,11,12)       -155.1625         estimate D2E/DX2                !
 ! D122  D(36,10,11,17)        -31.8205         estimate D2E/DX2                !
 ! D123  D(36,10,11,38)         83.2953         estimate D2E/DX2                !
 ! D124  D(37,10,11,12)        -39.3467         estimate D2E/DX2                !
 ! D125  D(37,10,11,17)         83.9953         estimate D2E/DX2                !
 ! D126  D(37,10,11,38)       -160.8889         estimate D2E/DX2                !
 ! D127  D(10,11,12,13)          4.3833         estimate D2E/DX2                !
 ! D128  D(10,11,12,15)        132.3364         estimate D2E/DX2                !
 ! D129  D(10,11,12,39)       -117.7936         estimate D2E/DX2                !
 ! D130  D(17,11,12,13)       -125.8471         estimate D2E/DX2                !
 ! D131  D(17,11,12,15)          2.106          estimate D2E/DX2                !
 ! D132  D(17,11,12,39)        111.976          estimate D2E/DX2                !
 ! D133  D(38,11,12,13)        124.6554         estimate D2E/DX2                !
 ! D134  D(38,11,12,15)       -107.3915         estimate D2E/DX2                !
 ! D135  D(38,11,12,39)          2.4785         estimate D2E/DX2                !
 ! D136  D(10,11,17,16)       -168.8517         estimate D2E/DX2                !
 ! D137  D(10,11,17,18)        -63.6244         estimate D2E/DX2                !
 ! D138  D(10,11,17,47)         70.3419         estimate D2E/DX2                !
 ! D139  D(12,11,17,16)        -38.2607         estimate D2E/DX2                !
 ! D140  D(12,11,17,18)         66.9666         estimate D2E/DX2                !
 ! D141  D(12,11,17,47)       -159.0671         estimate D2E/DX2                !
 ! D142  D(38,11,17,16)         74.7633         estimate D2E/DX2                !
 ! D143  D(38,11,17,18)        179.9905         estimate D2E/DX2                !
 ! D144  D(38,11,17,47)        -46.0432         estimate D2E/DX2                !
 ! D145  D(11,12,13,14)        -60.7867         estimate D2E/DX2                !
 ! D146  D(11,12,13,40)        177.5646         estimate D2E/DX2                !
 ! D147  D(11,12,13,41)         61.9953         estimate D2E/DX2                !
 ! D148  D(15,12,13,14)        177.4706         estimate D2E/DX2                !
 ! D149  D(15,12,13,40)         55.8219         estimate D2E/DX2                !
 ! D150  D(15,12,13,41)        -59.7474         estimate D2E/DX2                !
 ! D151  D(39,12,13,14)         61.7869         estimate D2E/DX2                !
 ! D152  D(39,12,13,40)        -59.8618         estimate D2E/DX2                !
 ! D153  D(39,12,13,41)       -175.431          estimate D2E/DX2                !
 ! D154  D(11,12,15,16)         34.7419         estimate D2E/DX2                !
 ! D155  D(11,12,15,19)        -72.4224         estimate D2E/DX2                !
 ! D156  D(11,12,15,44)        156.6477         estimate D2E/DX2                !
 ! D157  D(13,12,15,16)        165.1813         estimate D2E/DX2                !
 ! D158  D(13,12,15,19)         58.017          estimate D2E/DX2                !
 ! D159  D(13,12,15,44)        -72.9129         estimate D2E/DX2                !
 ! D160  D(39,12,15,16)        -77.666          estimate D2E/DX2                !
 ! D161  D(39,12,15,19)        175.1697         estimate D2E/DX2                !
 ! D162  D(39,12,15,44)         44.2398         estimate D2E/DX2                !
 ! D163  D(12,13,14,5)         -23.1594         estimate D2E/DX2                !
 ! D164  D(12,13,14,42)        102.7296         estimate D2E/DX2                !
 ! D165  D(12,13,14,43)       -143.9288         estimate D2E/DX2                !
 ! D166  D(40,13,14,5)          97.9384         estimate D2E/DX2                !
 ! D167  D(40,13,14,42)       -136.1727         estimate D2E/DX2                !
 ! D168  D(40,13,14,43)        -22.8311         estimate D2E/DX2                !
 ! D169  D(41,13,14,5)        -148.8115         estimate D2E/DX2                !
 ! D170  D(41,13,14,42)        -22.9225         estimate D2E/DX2                !
 ! D171  D(41,13,14,43)         90.4191         estimate D2E/DX2                !
 ! D172  D(12,15,16,17)        -58.3384         estimate D2E/DX2                !
 ! D173  D(12,15,16,45)         59.7373         estimate D2E/DX2                !
 ! D174  D(12,15,16,46)       -176.5297         estimate D2E/DX2                !
 ! D175  D(19,15,16,17)         56.799          estimate D2E/DX2                !
 ! D176  D(19,15,16,45)        174.8746         estimate D2E/DX2                !
 ! D177  D(19,15,16,46)        -61.3923         estimate D2E/DX2                !
 ! D178  D(44,15,16,17)       -179.7945         estimate D2E/DX2                !
 ! D179  D(44,15,16,45)        -61.7189         estimate D2E/DX2                !
 ! D180  D(44,15,16,46)         62.0142         estimate D2E/DX2                !
 ! D181  D(12,15,19,18)         74.1024         estimate D2E/DX2                !
 ! D182  D(12,15,19,20)       -165.2847         estimate D2E/DX2                !
 ! D183  D(12,15,19,49)        -46.4415         estimate D2E/DX2                !
 ! D184  D(16,15,19,18)        -32.4327         estimate D2E/DX2                !
 ! D185  D(16,15,19,20)         88.1801         estimate D2E/DX2                !
 ! D186  D(16,15,19,49)       -152.9766         estimate D2E/DX2                !
 ! D187  D(44,15,19,18)       -155.5283         estimate D2E/DX2                !
 ! D188  D(44,15,19,20)        -34.9154         estimate D2E/DX2                !
 ! D189  D(44,15,19,49)         83.9278         estimate D2E/DX2                !
 ! D190  D(15,16,17,11)         59.2717         estimate D2E/DX2                !
 ! D191  D(15,16,17,18)        -58.8885         estimate D2E/DX2                !
 ! D192  D(15,16,17,47)       -179.6966         estimate D2E/DX2                !
 ! D193  D(45,16,17,11)        -58.4582         estimate D2E/DX2                !
 ! D194  D(45,16,17,18)       -176.6184         estimate D2E/DX2                !
 ! D195  D(45,16,17,47)         62.5736         estimate D2E/DX2                !
 ! D196  D(46,16,17,11)        177.9061         estimate D2E/DX2                !
 ! D197  D(46,16,17,18)         59.7459         estimate D2E/DX2                !
 ! D198  D(46,16,17,47)        -61.0622         estimate D2E/DX2                !
 ! D199  D(11,17,18,19)        -65.5384         estimate D2E/DX2                !
 ! D200  D(11,17,18,21)         61.2132         estimate D2E/DX2                !
 ! D201  D(11,17,18,48)        178.8619         estimate D2E/DX2                !
 ! D202  D(16,17,18,19)         39.7747         estimate D2E/DX2                !
 ! D203  D(16,17,18,21)        166.5263         estimate D2E/DX2                !
 ! D204  D(16,17,18,48)        -75.825          estimate D2E/DX2                !
 ! D205  D(47,17,18,19)        160.4421         estimate D2E/DX2                !
 ! D206  D(47,17,18,21)        -72.8063         estimate D2E/DX2                !
 ! D207  D(47,17,18,48)         44.8424         estimate D2E/DX2                !
 ! D208  D(17,18,19,15)         -4.4442         estimate D2E/DX2                !
 ! D209  D(17,18,19,20)       -124.731          estimate D2E/DX2                !
 ! D210  D(17,18,19,49)        116.5278         estimate D2E/DX2                !
 ! D211  D(21,18,19,15)       -133.2358         estimate D2E/DX2                !
 ! D212  D(21,18,19,20)        106.4774         estimate D2E/DX2                !
 ! D213  D(21,18,19,49)        -12.2638         estimate D2E/DX2                !
 ! D214  D(48,18,19,15)        108.4095         estimate D2E/DX2                !
 ! D215  D(48,18,19,20)        -11.8772         estimate D2E/DX2                !
 ! D216  D(48,18,19,49)       -130.6185         estimate D2E/DX2                !
 ! D217  D(17,18,21,53)        -84.257          estimate D2E/DX2                !
 ! D218  D(17,18,21,54)        158.1031         estimate D2E/DX2                !
 ! D219  D(17,18,21,55)         39.8086         estimate D2E/DX2                !
 ! D220  D(19,18,21,53)         36.8633         estimate D2E/DX2                !
 ! D221  D(19,18,21,54)        -80.7766         estimate D2E/DX2                !
 ! D222  D(19,18,21,55)        160.9289         estimate D2E/DX2                !
 ! D223  D(48,18,21,53)        157.7302         estimate D2E/DX2                !
 ! D224  D(48,18,21,54)         40.0904         estimate D2E/DX2                !
 ! D225  D(48,18,21,55)        -78.2042         estimate D2E/DX2                !
 ! D226  D(15,19,20,50)         63.7808         estimate D2E/DX2                !
 ! D227  D(15,19,20,51)        -56.8574         estimate D2E/DX2                !
 ! D228  D(15,19,20,52)       -177.379          estimate D2E/DX2                !
 ! D229  D(18,19,20,50)        178.2888         estimate D2E/DX2                !
 ! D230  D(18,19,20,51)         57.6506         estimate D2E/DX2                !
 ! D231  D(18,19,20,52)        -62.871          estimate D2E/DX2                !
 ! D232  D(49,19,20,50)        -59.2068         estimate D2E/DX2                !
 ! D233  D(49,19,20,51)       -179.8451         estimate D2E/DX2                !
 ! D234  D(49,19,20,52)         59.6333         estimate D2E/DX2                !
 --------------------------------------------------------------------------------
 Trust Radius=5.00D-02 FncErr=1.00D-07 GrdErr=1.00D-06 EigMax=2.50D+02 EigMin=1.00D-04
 Number of steps in this run=    348 maximum allowed number of steps=    348.
 GradGradGradGradGradGradGradGradGradGradGradGradGradGradGradGradGradGrad

 Stoichiometry    C22H36
 Framework group  C1[X(C22H36)]
 Deg. of freedom   168
 Full point group                 C1      NOp   1
 Largest Abelian subgroup         C1      NOp   1
 Largest concise Abelian subgroup C1      NOp   1
                         Standard orientation:                         
 ---------------------------------------------------------------------
 Center     Atomic      Atomic             Coordinates (Angstroms)
 Number     Number       Type             X           Y           Z
 ---------------------------------------------------------------------
      1          6           0       -5.190885    1.400694   -0.281245
      2          6           0       -3.762338    0.835715   -0.416678
      3          6           0       -3.647104   -0.667452   -0.809342
      4          6           0       -2.906381   -1.280974    0.408382
      5          6           0       -1.408861   -0.879708    0.421471
      6          6           0       -1.468826    0.641799    0.759041
      7          6           0       -3.001428    0.882335    0.937126
      8          6           0       -3.425949   -0.436487    1.555107
      9          6           0       -0.761991    1.670227   -0.182434
     10          6           0        0.760682    1.516980   -0.441452
     11          6           0        1.560604    0.777337    0.647646
     12          6           0        1.597102   -0.776640    0.585529
     13          6           0        0.918697   -1.502517   -0.619986
     14          6           0       -0.607342   -1.297486   -0.829661
     15          6           0        3.114557   -1.078771    0.767377
     16          6           0        3.509281    0.035759    1.726572
     17          6           0        3.063538    1.154439    0.800546
     18          6           0        3.963912    0.839830   -0.426753
     19          6           0        3.933784   -0.705606   -0.498219
     20          6           0        5.341711   -1.321823   -0.474515
     21          6           0        3.629273    1.539361   -1.749861
     22          6           0       -4.971421   -1.399888   -1.088344
     23          1           0       -5.795535    0.854757    0.470092
     24          1           0       -5.711206    1.362555   -1.261132
     25          1           0       -5.139748    2.465855    0.029189
     26          1           0       -3.288042    1.461111   -1.192787
     27          1           0       -3.041017   -0.760420   -1.734118
     28          1           0       -3.067913   -2.372998    0.545984
     29          1           0       -0.987567   -1.431801    1.288724
     30          1           0       -1.032786    0.779465    1.772306
     31          1           0       -3.236076    1.769154    1.565551
     32          1           0       -4.521001   -0.535255    1.714567
     33          1           0       -2.916704   -0.647937    2.524644
     34          1           0       -1.228927    1.691361   -1.182720
     35          1           0       -0.933690    2.677465    0.256854
     36          1           0        1.176645    2.542185   -0.545084
     37          1           0        0.896594    1.034381   -1.423844
     38          1           0        1.111665    1.081196    1.618735
     39          1           0        1.122441   -1.166617    1.510857
     40          1           0        1.102221   -2.591111   -0.485247
     41          1           0        1.393645   -1.227640   -1.579027
     42          1           0       -0.776107   -0.579021   -1.656927
     43          1           0       -1.018717   -2.262717   -1.199038
     44          1           0        3.314745   -2.100568    1.157891
     45          1           0        2.948842    0.004159    2.690668
     46          1           0        4.596480    0.064348    1.964874
     47          1           0        3.228268    2.169092    1.223892
     48          1           0        4.989180    1.188365   -0.156897
     49          1           0        3.467189   -1.069022   -1.430306
     50          1           0        5.267113   -2.429790   -0.496433
     51          1           0        5.910327   -1.024165    0.430613
     52          1           0        5.908785   -0.992927   -1.371209
     53          1           0        2.845309    1.008773   -2.321409
     54          1           0        4.533891    1.547153   -2.394339
     55          1           0        3.333253    2.593368   -1.568619
     56          1           0       -5.498042   -0.927140   -1.943554
     57          1           0       -5.637067   -1.403364   -0.200949
     58          1           0       -4.760133   -2.454992   -1.363638
 ---------------------------------------------------------------------
 Rotational constants (GHZ):           0.7302393           0.1464428           0.1404500
 Standard basis: 6-31G(d,p) (6D, 7F)
 There are   510 symmetry adapted cartesian basis functions of A   symmetry.
 There are   510 symmetry adapted basis functions of A   symmetry.
   510 basis functions,   868 primitive gaussians,   510 cartesian basis functions
    84 alpha electrons       84 beta electrons
       nuclear repulsion energy      2015.2120094051 Hartrees.
 NAtoms=   58 NActive=   58 NUniq=   58 SFac= 1.00D+00 NAtFMM=   60 NAOKFM=F Big=F
 Integral buffers will be    131072 words long.
 Raffenetti 2 integral format.
 Two-electron integral symmetry is turned on.
 One-electron integrals computed using PRISM.
 NBasis=   510 RedAO= T EigKep=  8.49D-04  NBF=   510
 NBsUse=   510 1.00D-06 EigRej= -1.00D+00 NBFU=   510
 ExpMin= 1.61D-01 ExpMax= 3.05D+03 ExpMxC= 4.57D+02 IAcc=3 IRadAn=         5 AccDes= 0.00D+00
 Harris functional with IExCor=  402 and IRadAn=       5 diagonalized for initial guess.
 HarFok:  IExCor=  402 AccDes= 0.00D+00 IRadAn=         5 IDoV= 1 UseB2=F ITyADJ=14
 ICtDFT=  3500011 ScaDFX=  1.000000  1.000000  1.000000  1.000000
 FoFCou: FMM=F IPFlag=           0 FMFlag=      100000 FMFlg1=           0
         NFxFlg=           0 DoJE=T BraDBF=F KetDBF=T FulRan=T
         wScrn=  0.000000 ICntrl=       500 IOpCl=  0 I1Cent=   200000004 NGrid=           0
         NMat0=    1 NMatS0=      1 NMatT0=    0 NMatD0=    1 NMtDS0=    0 NMtDT0=    0
 Petite list used in FoFCou.
 Requested convergence on RMS density matrix=1.00D-08 within 128 cycles.
 Requested convergence on MAX density matrix=1.00D-06.
 Requested convergence on             energy=1.00D-06.
 No special actions if energy rises.
 Integral accuracy reduced to 1.0D-05 until final iterations.
 Initial convergence to 1.0D-05 achieved.  Increase integral accuracy.
 SCF Done:  E(RB3LYP) =  -860.041623129     A.U. after   12 cycles
            NFock= 12  Conv=0.61D-08     -V/T= 2.0103
 QCSCF skips out because SCF is already converged.

 **********************************************************************

            Population analysis using the SCF Density.

 **********************************************************************

 Orbital symmetries:
       Occupied  (A) (A) (A) (A) (A) (A) (A) (A) (A) (A) (A) (A)
                 (A) (A) (A) (A) (A) (A) (A) (A) (A) (A) (A) (A)
                 (A) (A) (A) (A) (A) (A) (A) (A) (A) (A) (A) (A)
                 (A) (A) (A) (A) (A) (A) (A) (A) (A) (A) (A) (A)
                 (A) (A) (A) (A) (A) (A) (A) (A) (A) (A) (A) (A)
                 (A) (A) (A) (A) (A) (A) (A) (A) (A) (A) (A) (A)
                 (A) (A) (A) (A) (A) (A) (A) (A) (A) (A) (A) (A)
       Virtual   (A) (A) (A) (A) (A) (A) (A) (A) (A) (A) (A) (A)
                 (A) (A) (A) (A) (A) (A) (A) (A) (A) (A) (A) (A)
                 (A) (A) (A) (A) (A) (A) (A) (A) (A) (A) (A) (A)
                 (A) (A) (A) (A) (A) (A) (A) (A) (A) (A) (A) (A)
                 (A) (A) (A) (A) (A) (A) (A) (A) (A) (A) (A) (A)
                 (A) (A) (A) (A) (A) (A) (A) (A) (A) (A) (A) (A)
                 (A) (A) (A) (A) (A) (A) (A) (A) (A) (A) (A) (A)
                 (A) (A) (A) (A) (A) (A) (A) (A) (A) (A) (A) (A)
                 (A) (A) (A) (A) (A) (A) (A) (A) (A) (A) (A) (A)
                 (A) (A) (A) (A) (A) (A) (A) (A) (A) (A) (A) (A)
                 (A) (A) (A) (A) (A) (A) (A) (A) (A) (A) (A) (A)
                 (A) (A) (A) (A) (A) (A) (A) (A) (A) (A) (A) (A)
                 (A) (A) (A) (A) (A) (A) (A) (A) (A) (A) (A) (A)
                 (A) (A) (A) (A) (A) (A) (A) (A) (A) (A) (A) (A)
                 (A) (A) (A) (A) (A) (A) (A) (A) (A) (A) (A) (A)
                 (A) (A) (A) (A) (A) (A) (A) (A) (A) (A) (A) (A)
                 (A) (A) (A) (A) (A) (A) (A) (A) (A) (A) (A) (A)
                 (A) (A) (A) (A) (A) (A) (A) (A) (A) (A) (A) (A)
                 (A) (A) (A) (A) (A) (A) (A) (A) (A) (A) (A) (A)
                 (A) (A) (A) (A) (A) (A) (A) (A) (A) (A) (A) (A)
                 (A) (A) (A) (A) (A) (A) (A) (A) (A) (A) (A) (A)
                 (A) (A) (A) (A) (A) (A) (A) (A) (A) (A) (A) (A)
                 (A) (A) (A) (A) (A) (A) (A) (A) (A) (A) (A) (A)
                 (A) (A) (A) (A) (A) (A) (A) (A) (A) (A) (A) (A)
                 (A) (A) (A) (A) (A) (A) (A) (A) (A) (A) (A) (A)
                 (A) (A) (A) (A) (A) (A) (A) (A) (A) (A) (A) (A)
                 (A) (A) (A) (A) (A) (A) (A) (A) (A) (A) (A) (A)
                 (A) (A) (A) (A) (A) (A) (A) (A) (A) (A) (A) (A)
                 (A) (A) (A) (A) (A) (A) (A) (A) (A) (A) (A) (A)
                 (A) (A) (A) (A) (A) (A) (A) (A) (A) (A) (A) (A)
                 (A) (A) (A) (A) (A) (A) (A) (A) (A) (A) (A) (A)
                 (A) (A) (A) (A) (A) (A) (A) (A) (A) (A) (A) (A)
                 (A) (A) (A) (A) (A) (A) (A) (A) (A) (A) (A) (A)
                 (A) (A) (A) (A) (A) (A) (A) (A) (A) (A) (A) (A)
                 (A) (A) (A) (A) (A) (A) (A) (A) (A) (A) (A) (A)
                 (A) (A) (A) (A) (A) (A)
 The electronic state is 1-A.
 Alpha  occ. eigenvalues --  -10.17963 -10.17920 -10.17867 -10.17792 -10.17774
 Alpha  occ. eigenvalues --  -10.17753 -10.17734 -10.17666 -10.17618 -10.17589
 Alpha  occ. eigenvalues --  -10.17571 -10.17565 -10.17533 -10.17526 -10.17306
 Alpha  occ. eigenvalues --  -10.17297 -10.17225 -10.17210 -10.17206 -10.17095
 Alpha  occ. eigenvalues --  -10.16929 -10.16863  -0.87451  -0.87024  -0.79473
 Alpha  occ. eigenvalues --   -0.76748  -0.76555  -0.74644  -0.73766  -0.72464
 Alpha  occ. eigenvalues --   -0.70776  -0.68592  -0.66188  -0.65806  -0.63991
 Alpha  occ. eigenvalues --   -0.62541  -0.61059  -0.57690  -0.56015  -0.54412
 Alpha  occ. eigenvalues --   -0.53703  -0.53468  -0.50766  -0.50075  -0.49001
 Alpha  occ. eigenvalues --   -0.47710  -0.47495  -0.46165  -0.44734  -0.42904
 Alpha  occ. eigenvalues --   -0.42826  -0.41885  -0.41253  -0.40719  -0.40476
 Alpha  occ. eigenvalues --   -0.39630  -0.39185  -0.39152  -0.38424  -0.38315
 Alpha  occ. eigenvalues --   -0.37639  -0.37055  -0.36853  -0.36533  -0.35607
 Alpha  occ. eigenvalues --   -0.34862  -0.34037  -0.33576  -0.32947  -0.32685
 Alpha  occ. eigenvalues --   -0.32363  -0.32237  -0.31662  -0.31334  -0.31257
 Alpha  occ. eigenvalues --   -0.30314  -0.29578  -0.29469  -0.29003  -0.28910
 Alpha  occ. eigenvalues --   -0.27912  -0.27700  -0.26878  -0.25809
 Alpha virt. eigenvalues --    0.06170   0.07054   0.08154   0.09122   0.09583
 Alpha virt. eigenvalues --    0.09804   0.11093   0.11961   0.12038   0.12646
 Alpha virt. eigenvalues --    0.13670   0.13717   0.13880   0.14431   0.14735
 Alpha virt. eigenvalues --    0.15138   0.15682   0.16012   0.16417   0.16596
 Alpha virt. eigenvalues --    0.17145   0.17497   0.17882   0.18122   0.18302
 Alpha virt. eigenvalues --    0.19544   0.19691   0.19988   0.20253   0.20501
 Alpha virt. eigenvalues --    0.20750   0.20786   0.21383   0.21699   0.21938
 Alpha virt. eigenvalues --    0.22106   0.22824   0.22869   0.23412   0.23821
 Alpha virt. eigenvalues --    0.24308   0.24516   0.25375   0.25511   0.25642
 Alpha virt. eigenvalues --    0.26542   0.27137   0.27292   0.27650   0.28423
 Alpha virt. eigenvalues --    0.28926   0.30360   0.31535   0.31870   0.32375
 Alpha virt. eigenvalues --    0.33875   0.34356   0.34523   0.35395   0.35511
 Alpha virt. eigenvalues --    0.36986   0.40506   0.47201   0.49746   0.50782
 Alpha virt. eigenvalues --    0.51189   0.51856   0.52823   0.53327   0.54484
 Alpha virt. eigenvalues --    0.55686   0.55902   0.56495   0.57179   0.57744
 Alpha virt. eigenvalues --    0.58461   0.59207   0.60146   0.60783   0.61246
 Alpha virt. eigenvalues --    0.61637   0.61883   0.63638   0.64304   0.64441
 Alpha virt. eigenvalues --    0.64856   0.65985   0.66550   0.67408   0.67763
 Alpha virt. eigenvalues --    0.67953   0.68799   0.69469   0.69717   0.69794
 Alpha virt. eigenvalues --    0.71965   0.72593   0.73624   0.74501   0.74752
 Alpha virt. eigenvalues --    0.75129   0.75344   0.77064   0.77331   0.77758
 Alpha virt. eigenvalues --    0.78555   0.78938   0.79812   0.80483   0.81293
 Alpha virt. eigenvalues --    0.81648   0.82558   0.82905   0.83129   0.83993
 Alpha virt. eigenvalues --    0.84652   0.84892   0.85640   0.86245   0.86562
 Alpha virt. eigenvalues --    0.86616   0.86844   0.87426   0.87759   0.88283
 Alpha virt. eigenvalues --    0.88348   0.88611   0.88905   0.89176   0.89489
 Alpha virt. eigenvalues --    0.90947   0.91309   0.91377   0.92061   0.92622
 Alpha virt. eigenvalues --    0.93510   0.93845   0.94228   0.94484   0.94669
 Alpha virt. eigenvalues --    0.95377   0.96121   0.96631   0.96900   0.97322
 Alpha virt. eigenvalues --    0.98808   0.99018   0.99230   0.99693   1.00369
 Alpha virt. eigenvalues --    1.00907   1.02187   1.02742   1.03580   1.04808
 Alpha virt. eigenvalues --    1.06651   1.10045   1.12370   1.14613   1.15931
 Alpha virt. eigenvalues --    1.18124   1.18974   1.19245   1.22059   1.23163
 Alpha virt. eigenvalues --    1.23785   1.25997   1.28202   1.29420   1.32580
 Alpha virt. eigenvalues --    1.32913   1.35592   1.36843   1.39309   1.41415
 Alpha virt. eigenvalues --    1.44201   1.44324   1.45834   1.46589   1.47719
 Alpha virt. eigenvalues --    1.49659   1.51332   1.52007   1.53135   1.54700
 Alpha virt. eigenvalues --    1.56038   1.56525   1.58860   1.60030   1.61779
 Alpha virt. eigenvalues --    1.62577   1.66162   1.66943   1.68287   1.69694
 Alpha virt. eigenvalues --    1.70448   1.70745   1.71039   1.73279   1.73710
 Alpha virt. eigenvalues --    1.74311   1.75076   1.76192   1.76721   1.77501
 Alpha virt. eigenvalues --    1.78205   1.79442   1.79692   1.80698   1.81418
 Alpha virt. eigenvalues --    1.82084   1.82666   1.83723   1.84562   1.86308
 Alpha virt. eigenvalues --    1.86797   1.87595   1.88670   1.89883   1.90110
 Alpha virt. eigenvalues --    1.92405   1.92847   1.93694   1.94138   1.94783
 Alpha virt. eigenvalues --    1.95683   1.95725   1.95900   1.97224   1.97746
 Alpha virt. eigenvalues --    1.98574   1.99167   2.00042   2.00624   2.01706
 Alpha virt. eigenvalues --    2.02357   2.03195   2.04020   2.04513   2.04797
 Alpha virt. eigenvalues --    2.04921   2.05306   2.05828   2.06005   2.07282
 Alpha virt. eigenvalues --    2.07867   2.08312   2.08688   2.09510   2.09980
 Alpha virt. eigenvalues --    2.10503   2.11094   2.11189   2.11902   2.12109
 Alpha virt. eigenvalues --    2.12564   2.13081   2.13225   2.13883   2.15341
 Alpha virt. eigenvalues --    2.15497   2.16054   2.17306   2.17669   2.18667
 Alpha virt. eigenvalues --    2.21359   2.21716   2.23341   2.25101   2.26668
 Alpha virt. eigenvalues --    2.27107   2.28224   2.29422   2.29853   2.30738
 Alpha virt. eigenvalues --    2.32100   2.33099   2.33436   2.34321   2.35646
 Alpha virt. eigenvalues --    2.37218   2.37789   2.38274   2.38575   2.39806
 Alpha virt. eigenvalues --    2.40832   2.41262   2.41530   2.43736   2.44360
 Alpha virt. eigenvalues --    2.44792   2.46091   2.47061   2.47408   2.47522
 Alpha virt. eigenvalues --    2.48796   2.49432   2.49704   2.50811   2.51988
 Alpha virt. eigenvalues --    2.53265   2.53967   2.54170   2.54485   2.55753
 Alpha virt. eigenvalues --    2.56067   2.58271   2.58830   2.59688   2.60314
 Alpha virt. eigenvalues --    2.61143   2.61524   2.62443   2.64037   2.64161
 Alpha virt. eigenvalues --    2.65419   2.65968   2.67179   2.67835   2.68224
 Alpha virt. eigenvalues --    2.69642   2.70687   2.71193   2.71583   2.72300
 Alpha virt. eigenvalues --    2.73006   2.73213   2.74526   2.74938   2.75129
 Alpha virt. eigenvalues --    2.76192   2.76491   2.77086   2.77795   2.78964
 Alpha virt. eigenvalues --    2.79188   2.80126   2.81151   2.81400   2.82348
 Alpha virt. eigenvalues --    2.82990   2.83236   2.83704   2.84485   2.84828
 Alpha virt. eigenvalues --    2.85448   2.86152   2.87564   2.88803   2.89011
 Alpha virt. eigenvalues --    2.89197   2.89335   2.90790   2.91181   2.91958
 Alpha virt. eigenvalues --    2.92553   2.93548   2.94268   2.95575   2.96267
 Alpha virt. eigenvalues --    2.96646   2.98004   3.01547   3.02470   3.03734
 Alpha virt. eigenvalues --    3.11041   3.13933   3.16909   3.17006   3.17876
 Alpha virt. eigenvalues --    3.20658   3.21064   3.22900   3.25582   3.26831
 Alpha virt. eigenvalues --    3.28126   3.32614   3.33469   3.34072   3.34531
 Alpha virt. eigenvalues --    3.34836   3.36464   3.39265   3.40237   3.41299
 Alpha virt. eigenvalues --    3.41547   3.42622   3.43048   3.43575   3.44327
 Alpha virt. eigenvalues --    3.44937   3.45883   3.46060   3.46490   3.46929
 Alpha virt. eigenvalues --    3.47102   3.47287   3.49524   3.50605   3.51063
 Alpha virt. eigenvalues --    3.52775   3.54672   3.54922   3.58960   4.22819
 Alpha virt. eigenvalues --    4.33607   4.36106   4.39523   4.44221   4.48188
 Alpha virt. eigenvalues --    4.53790   4.57290   4.63024   4.64559   4.65604
 Alpha virt. eigenvalues --    4.67593   4.70036   4.72116   4.78703   4.81115
 Alpha virt. eigenvalues --    4.85153   4.90744   4.94866   5.00550   5.04134
 Alpha virt. eigenvalues --    5.13880
          Condensed to atoms (all electrons):
 Mulliken charges:
               1
     1  C   -0.311747
     2  C   -0.049855
     3  C   -0.048728
     4  C   -0.077407
     5  C   -0.043295
     6  C   -0.049481
     7  C   -0.069907
     8  C   -0.187002
     9  C   -0.194463
    10  C   -0.185750
    11  C   -0.041394
    12  C   -0.045902
    13  C   -0.193919
    14  C   -0.190947
    15  C   -0.073057
    16  C   -0.188232
    17  C   -0.084417
    18  C   -0.034655
    19  C   -0.045855
    20  C   -0.314844
    21  C   -0.318261
    22  C   -0.309842
    23  H    0.097656
    24  H    0.095928
    25  H    0.095589
    26  H    0.079651
    27  H    0.080240
    28  H    0.059520
    29  H    0.078823
    30  H    0.079575
    31  H    0.059898
    32  H    0.081418
    33  H    0.080584
    34  H    0.089107
    35  H    0.085995
    36  H    0.086247
    37  H    0.089769
    38  H    0.081344
    39  H    0.080669
    40  H    0.086943
    41  H    0.088605
    42  H    0.089890
    43  H    0.086817
    44  H    0.059763
    45  H    0.078269
    46  H    0.081019
    47  H    0.060508
    48  H    0.080315
    49  H    0.080637
    50  H    0.094830
    51  H    0.097643
    52  H    0.094698
    53  H    0.099147
    54  H    0.091948
    55  H    0.097666
    56  H    0.095340
    57  H    0.097736
    58  H    0.095173
 Sum of Mulliken charges =  -0.00000
 Mulliken charges with hydrogens summed into heavy atoms:
               1
     1  C   -0.022573
     2  C    0.029796
     3  C    0.031511
     4  C   -0.017887
     5  C    0.035528
     6  C    0.030093
     7  C   -0.010009
     8  C   -0.024999
     9  C   -0.019360
    10  C   -0.009734
    11  C    0.039950
    12  C    0.034767
    13  C   -0.018371
    14  C   -0.014240
    15  C   -0.013294
    16  C   -0.028943
    17  C   -0.023910
    18  C    0.045659
    19  C    0.034781
    20  C   -0.027673
    21  C   -0.029501
    22  C   -0.021592
 Electronic spatial extent (au):  <R**2>=           8390.8074
 Charge=             -0.0000 electrons
 Dipole moment (field-independent basis, Debye):
    X=              0.0662    Y=              0.0291    Z=              0.0071  Tot=              0.0726
 Quadrupole moment (field-independent basis, Debye-Ang):
   XX=           -143.0879   YY=           -140.0697   ZZ=           -139.4003
   XY=              0.5220   XZ=              0.1318   YZ=              0.1432
 Traceless Quadrupole moment (field-independent basis, Debye-Ang):
   XX=             -2.2352   YY=              0.7829   ZZ=              1.4523
   XY=              0.5220   XZ=              0.1318   YZ=              0.1432
 Octapole moment (field-independent basis, Debye-Ang**2):
  XXX=              6.7527  YYY=             -0.1396  ZZZ=             -0.6913  XYY=              0.4891
  XXY=              5.0423  XXZ=              0.8096  XZZ=             -2.0915  YZZ=             -0.5124
  YYZ=              2.0559  XYZ=              2.0992
 Hexadecapole moment (field-independent basis, Debye-Ang**3):
 XXXX=          -9448.1192 YYYY=          -1400.4524 ZZZZ=          -1007.5096 XXXY=             39.2799
 XXXZ=            -10.0013 YYYX=              0.7870 YYYZ=              6.4885 ZZZX=              6.0502
 ZZZY=              1.6702 XXYY=          -1813.8542 XXZZ=          -1714.3779 YYZZ=           -411.0599
 XXYZ=             -6.9916 YYXZ=              2.4146 ZZXY=             -7.1118
 N-N= 2.015212009405D+03 E-N=-6.018516611401D+03  KE= 8.512459349070D+02
 Calling FoFJK, ICntrl=      2127 FMM=F ISym2X=0 I1Cent= 0 IOpClX= 0 NMat=1 NMatS=1 NMatT=0.
 ***** Axes restored to original set *****
 -------------------------------------------------------------------
 Center     Atomic                   Forces (Hartrees/Bohr)
 Number     Number              X              Y              Z
 -------------------------------------------------------------------
      1        6           0.003532569    0.003599181   -0.000654489
      2        6           0.003101083    0.012221923   -0.009118995
      3        6          -0.000773879   -0.003107136    0.015353210
      4        6          -0.002487542   -0.011011935    0.012601561
      5        6          -0.004090280   -0.010793267    0.013252014
      6        6          -0.005789731    0.007889570   -0.015769291
      7        6           0.000083623    0.009816252   -0.015736350
      8        6           0.014089387   -0.019573837   -0.011478893
      9        6           0.005779765   -0.000134101   -0.003066810
     10        6          -0.003939564    0.004189268   -0.000568487
     11        6           0.003995682    0.012764629   -0.014321571
     12        6           0.006308405   -0.013517040    0.011457412
     13        6          -0.005279734   -0.002404520    0.000064982
     14        6           0.005984557    0.000037498    0.004873015
     15        6           0.000237887   -0.014250038    0.012093589
     16        6          -0.008615809   -0.018334880   -0.018324342
     17        6          -0.002575726    0.006679189   -0.012949831
     18        6          -0.000489275    0.014720254   -0.007083997
     19        6          -0.008893143   -0.010964302    0.005709915
     20        6          -0.003919228   -0.001874801    0.005322233
     21        6          -0.007048198    0.007414184    0.002579474
     22        6           0.002060651    0.001309953    0.004938409
     23        1          -0.004023590    0.008683533    0.001384506
     24        1          -0.000801569   -0.006730252   -0.007909900
     25        1           0.001121173   -0.005022577    0.008160252
     26        1          -0.000850685   -0.006586106   -0.002188802
     27        1           0.003978111   -0.005269664   -0.005844507
     28        1          -0.003440606    0.010610365   -0.001757754
     29        1          -0.000075933    0.009259448    0.001360278
     30        1           0.001200674    0.006353308    0.006691583
     31        1          -0.003963616    0.002488560    0.010005585
     32        1          -0.009890467    0.001025394   -0.001643709
     33        1           0.005127539    0.007959800    0.006434919
     34        1           0.002926915   -0.004646605   -0.005742529
     35        1           0.001048285   -0.004699290    0.008076775
     36        1           0.002964720   -0.006108670    0.006732458
     37        1          -0.001197506   -0.002429866   -0.007086573
     38        1          -0.003699922    0.002673093    0.007787683
     39        1          -0.001832935    0.007619609    0.005040227
     40        1          -0.000777681    0.007178712   -0.006058405
     41        1          -0.001230853   -0.007356891   -0.003721280
     42        1           0.000141501   -0.008712307   -0.002519496
     43        1          -0.002361955    0.004207484   -0.007506035
     44        1           0.002214193    0.010605919    0.001015784
     45        1          -0.006966352    0.006251388    0.006768416
     46        1           0.010606519    0.001493378    0.002649671
     47        1           0.003185181    0.000893088    0.010592503
     48        1           0.009110455   -0.003637708    0.004348862
     49        1           0.002018835   -0.000778909   -0.007145039
     50        1          -0.003736862    0.006379036   -0.006294533
     51        1           0.003312718    0.003304752    0.008357246
     52        1           0.002962523   -0.008331943   -0.003781664
     53        1          -0.002865256    0.002001380   -0.009156564
     54        1           0.008337753   -0.001029264   -0.002983051
     55        1          -0.001899685   -0.003151981    0.010138185
     56        1          -0.000450373   -0.010142900   -0.002738197
     57        1          -0.004736801    0.005814255    0.006996470
     58        1           0.003274051    0.005156393   -0.007636119
 -------------------------------------------------------------------
 Cartesian Forces:  Max     0.019573837 RMS     0.007126540

 GradGradGradGradGradGradGradGradGradGradGradGradGradGradGradGradGradGrad
 Berny optimization.
 FormGI is forming the generalized inverse of G from B-inverse, IUseBI=4.
 Internal  Forces:  Max     0.013006483 RMS     0.003475499
 Search for a local minimum.
 Step number   1 out of a maximum of  348
 All quantities printed in internal units (Hartrees-Bohrs-Radians)
 Mixed Optimization -- RFO/linear search
 Second derivative matrix not updated -- first step.
 ITU=  0
     Eigenvalues ---    0.00230   0.00230   0.00252   0.00276   0.00301
     Eigenvalues ---    0.00318   0.00321   0.00403   0.00608   0.00634
     Eigenvalues ---    0.01218   0.01653   0.01790   0.01815   0.02027
     Eigenvalues ---    0.02143   0.02253   0.02437   0.02570   0.02741
     Eigenvalues ---    0.02791   0.02936   0.02964   0.03054   0.03442
     Eigenvalues ---    0.03550   0.03657   0.03686   0.03752   0.03781
     Eigenvalues ---    0.03839   0.03886   0.04082   0.04103   0.04181
     Eigenvalues ---    0.04244   0.04283   0.04545   0.04586   0.04641
     Eigenvalues ---    0.04695   0.04817   0.04893   0.05002   0.05115
     Eigenvalues ---    0.05132   0.05228   0.05274   0.05283   0.05303
     Eigenvalues ---    0.05373   0.05395   0.05422   0.05504   0.05559
     Eigenvalues ---    0.05636   0.05668   0.05676   0.05689   0.05692
     Eigenvalues ---    0.05717   0.05785   0.05818   0.05914   0.05939
     Eigenvalues ---    0.07035   0.07100   0.07233   0.07582   0.07634
     Eigenvalues ---    0.07836   0.08661   0.08852   0.08929   0.08960
     Eigenvalues ---    0.09166   0.09276   0.09451   0.09629   0.09741
     Eigenvalues ---    0.09869   0.10054   0.10538   0.11682   0.12125
     Eigenvalues ---    0.12296   0.12942   0.14077   0.14274   0.15080
     Eigenvalues ---    0.15990   0.16000   0.16000   0.16000   0.16000
     Eigenvalues ---    0.16000   0.16000   0.16000   0.16000   0.16000
     Eigenvalues ---    0.16000   0.16000   0.16000   0.16711   0.18258
     Eigenvalues ---    0.19777   0.20558   0.22338   0.22513   0.22965
     Eigenvalues ---    0.23413   0.23830   0.24057   0.24216   0.25406
     Eigenvalues ---    0.25597   0.26023   0.26214   0.26358   0.27014
     Eigenvalues ---    0.27144   0.27360   0.27386   0.27389   0.27786
     Eigenvalues ---    0.28040   0.28328   0.28468   0.28613   0.28619
     Eigenvalues ---    0.28781   0.29093   0.31972   0.32014   0.32038
     Eigenvalues ---    0.32245   0.32342   0.32352   0.32368   0.32373
     Eigenvalues ---    0.32374   0.32384   0.32395   0.32421   0.32425
     Eigenvalues ---    0.32471   0.32490   0.32494   0.32519   0.32522
     Eigenvalues ---    0.32525   0.32527   0.32528   0.32531   0.32587
     Eigenvalues ---    0.32595   0.32633   0.32643   0.32644   0.32673
     Eigenvalues ---    0.32746   0.32789   0.33049   0.33142   0.33232
     Eigenvalues ---    0.33256   0.33263   0.33360
 RFO step:  Lambda=-2.03741139D-02 EMin= 2.30000000D-03
 Linear search not attempted -- first point.
 Maximum step size (   0.050) exceeded in Quadratic search.
    -- Step size scaled by   0.192
 Iteration  1 RMS(Cart)=  0.00639065 RMS(Int)=  0.00001548
 Iteration  2 RMS(Cart)=  0.00002353 RMS(Int)=  0.00000398
 Iteration  3 RMS(Cart)=  0.00000000 RMS(Int)=  0.00000398
 Variable       Old X    -DE/DX   Delta X   Delta X   Delta X     New X
                                 (Linear)    (Quad)   (Total)
    R1        2.91428  -0.00027   0.00000  -0.00017  -0.00017   2.91411
    R2        2.09424  -0.00945   0.00000  -0.00522  -0.00522   2.08902
    R3        2.09782  -0.00986   0.00000  -0.00548  -0.00548   2.09235
    R4        2.09883  -0.00961   0.00000  -0.00534  -0.00534   2.09349
    R5        2.94396   0.01301   0.00000   0.00808   0.00808   2.95204
    R6        2.93604   0.00030   0.00000   0.00021   0.00021   2.93625
    R7        2.08592  -0.00553   0.00000  -0.00301  -0.00301   2.08291
    R8        2.93238   0.00256   0.00000   0.00142   0.00142   2.93381
    R9        2.90804   0.00052   0.00000   0.00033   0.00033   2.90837
   R10        2.09683  -0.00862   0.00000  -0.00478  -0.00478   2.09205
   R11        2.92984   0.00394   0.00000   0.00243   0.00243   2.93227
   R12        2.86472   0.01260   0.00000   0.00807   0.00807   2.87279
   R13        2.10223  -0.01006   0.00000  -0.00563  -0.00563   2.09660
   R14        2.94733   0.01116   0.00000   0.00694   0.00694   2.95426
   R15        2.91674  -0.00414   0.00000  -0.00251  -0.00251   2.91423
   R16        2.09957  -0.00878   0.00000  -0.00489  -0.00489   2.09468
   R17        2.95090   0.00099   0.00000   0.00058   0.00058   2.95148
   R18        2.95406  -0.01102   0.00000  -0.00756  -0.00756   2.94650
   R19        2.10073  -0.00903   0.00000  -0.00504  -0.00504   2.09569
   R20        2.86679   0.01166   0.00000   0.00751   0.00751   2.87430
   R21        2.10127  -0.00986   0.00000  -0.00551  -0.00551   2.09576
   R22        2.09949  -0.00996   0.00000  -0.00555  -0.00555   2.09394
   R23        2.10774  -0.01140   0.00000  -0.00644  -0.00644   2.10130
   R24        2.93310   0.00515   0.00000   0.00339   0.00339   2.93649
   R25        2.08646  -0.00590   0.00000  -0.00322  -0.00322   2.08324
   R26        2.10175  -0.00895   0.00000  -0.00500  -0.00500   2.09675
   R27        2.91109  -0.00225   0.00000  -0.00121  -0.00121   2.90988
   R28        2.09990  -0.00942   0.00000  -0.00525  -0.00525   2.09465
   R29        2.08425  -0.00710   0.00000  -0.00386  -0.00386   2.08039
   R30        2.93975   0.01259   0.00000   0.00791   0.00791   2.94765
   R31        2.94239   0.00311   0.00000   0.00168   0.00168   2.94407
   R32        2.10167  -0.00897   0.00000  -0.00502  -0.00502   2.09666
   R33        2.95209  -0.01097   0.00000  -0.00753  -0.00753   2.94456
   R34        2.94398   0.00179   0.00000   0.00134   0.00134   2.94532
   R35        2.09889  -0.00873   0.00000  -0.00486  -0.00486   2.09403
   R36        2.93656   0.00427   0.00000   0.00270   0.00270   2.93926
   R37        2.10166  -0.00912   0.00000  -0.00510  -0.00510   2.09656
   R38        2.08803  -0.00650   0.00000  -0.00355  -0.00355   2.08448
   R39        2.09499  -0.00891   0.00000  -0.00493  -0.00493   2.09006
   R40        2.10205  -0.00887   0.00000  -0.00496  -0.00496   2.09709
   R41        2.87713   0.01006   0.00000   0.00634   0.00633   2.88346
   R42        2.93493   0.00086   0.00000   0.00064   0.00064   2.93558
   R43        2.10146  -0.00980   0.00000  -0.00547  -0.00547   2.09599
   R44        2.87068   0.01245   0.00000   0.00861   0.00861   2.87929
   R45        2.10819  -0.01154   0.00000  -0.00652  -0.00652   2.10167
   R46        2.10398  -0.01102   0.00000  -0.00618  -0.00618   2.09779
   R47        2.93724   0.00332   0.00000   0.00176   0.00176   2.93900
   R48        2.10081  -0.00957   0.00000  -0.00534  -0.00534   2.09547
   R49        2.92413   0.01222   0.00000   0.00716   0.00716   2.93129
   R50        2.89809   0.00455   0.00000   0.00281   0.00281   2.90091
   R51        2.10895  -0.01015   0.00000  -0.00574  -0.00574   2.10321
   R52        2.90462   0.00218   0.00000   0.00136   0.00136   2.90597
   R53        2.08605  -0.00578   0.00000  -0.00315  -0.00315   2.08290
   R54        2.09890  -0.00919   0.00000  -0.00511  -0.00511   2.09379
   R55        2.09681  -0.00951   0.00000  -0.00527  -0.00527   2.09154
   R56        2.09905  -0.00918   0.00000  -0.00511  -0.00511   2.09394
   R57        2.08966  -0.00868   0.00000  -0.00476  -0.00476   2.08490
   R58        2.09900  -0.00864   0.00000  -0.00481  -0.00481   2.09419
   R59        2.09701  -0.00998   0.00000  -0.00553  -0.00553   2.09147
   R60        2.09768  -0.00974   0.00000  -0.00541  -0.00541   2.09227
   R61        2.09629  -0.00994   0.00000  -0.00551  -0.00551   2.09078
   R62        2.09893  -0.00969   0.00000  -0.00539  -0.00539   2.09354
    A1        1.96543   0.00172   0.00000   0.00155   0.00155   1.96698
    A2        1.92204   0.00383   0.00000   0.00421   0.00421   1.92625
    A3        1.91054   0.00036   0.00000   0.00053   0.00053   1.91106
    A4        1.90263  -0.00330   0.00000  -0.00379  -0.00380   1.89884
    A5        1.88396  -0.00133   0.00000  -0.00169  -0.00169   1.88228
    A6        1.87679  -0.00154   0.00000  -0.00106  -0.00107   1.87573
    A7        2.03101   0.00015   0.00000   0.00128   0.00127   2.03228
    A8        1.94566   0.00026   0.00000   0.00130   0.00129   1.94696
    A9        1.82576   0.00129   0.00000   0.00246   0.00246   1.82822
   A10        1.78478   0.00091   0.00000   0.00066   0.00066   1.78544
   A11        1.91524  -0.00075   0.00000  -0.00097  -0.00097   1.91427
   A12        1.96624  -0.00210   0.00000  -0.00525  -0.00525   1.96099
   A13        1.79159  -0.00020   0.00000  -0.00001  -0.00001   1.79158
   A14        2.02783   0.00060   0.00000   0.00185   0.00184   2.02967
   A15        1.90849  -0.00041   0.00000  -0.00099  -0.00099   1.90750
   A16        1.94431   0.00154   0.00000   0.00303   0.00302   1.94733
   A17        1.93924  -0.00156   0.00000  -0.00389  -0.00389   1.93535
   A18        1.85364  -0.00012   0.00000  -0.00033  -0.00033   1.85331
   A19        1.94482  -0.00024   0.00000  -0.00053  -0.00053   1.94429
   A20        1.78212  -0.00044   0.00000  -0.00074  -0.00073   1.78139
   A21        1.99969  -0.00088   0.00000  -0.00293  -0.00294   1.99676
   A22        1.75227   0.00036   0.00000   0.00075   0.00075   1.75302
   A23        1.97498  -0.00016   0.00000  -0.00125  -0.00126   1.97372
   A24        1.98614   0.00157   0.00000   0.00545   0.00546   1.99160
   A25        1.78971  -0.00095   0.00000  -0.00048  -0.00047   1.78924
   A26        2.00941   0.00132   0.00000   0.00197   0.00197   2.01138
   A27        1.81753   0.00159   0.00000   0.00378   0.00378   1.82131
   A28        2.04819  -0.00026   0.00000   0.00019   0.00019   2.04838
   A29        1.90751   0.00014   0.00000  -0.00193  -0.00193   1.90558
   A30        1.87687  -0.00156   0.00000  -0.00308  -0.00309   1.87379
   A31        1.78512   0.00212   0.00000   0.00136   0.00136   1.78648
   A32        2.08755  -0.00095   0.00000  -0.00058  -0.00058   2.08697
   A33        1.87864   0.00050   0.00000   0.00161   0.00161   1.88025
   A34        1.99449  -0.00205   0.00000  -0.00285  -0.00285   1.99164
   A35        1.83583   0.00060   0.00000   0.00226   0.00225   1.83809
   A36        1.86516   0.00007   0.00000  -0.00115  -0.00114   1.86401
[...]
     34          1           0       -1.322790    1.727210   -1.101816
     35          1           0       -0.939051    2.629743    0.337588
     36          1           0        1.113555    2.504925   -0.675013
     37          1           0        0.833761    0.955592   -1.416537
     38          1           0        1.133630    1.158742    1.575416
     39          1           0        1.106448   -1.077585    1.556358
     40          1           0        1.098390   -2.596157   -0.278971
     41          1           0        1.472679   -1.369515   -1.457833
     42          1           0       -0.710687   -0.596184   -1.600318
     43          1           0       -0.968686   -2.269804   -1.196608
     44          1           0        3.307641   -2.047926    1.218774
     45          1           0        2.982110    0.153170    2.694314
     46          1           0        4.601691    0.168408    1.963569
     47          1           0        3.208623    2.255851    1.061097
     48          1           0        4.982640    1.152462   -0.181896
     49          1           0        3.405053   -1.087703   -1.349170
     50          1           0        5.262358   -2.459590   -0.517017
     51          1           0        5.897618   -1.104803    0.427144
     52          1           0        5.905064   -1.030644   -1.337903
     53          1           0        2.752136    1.150364   -2.274423
     54          1           0        4.492614    1.224086   -2.538092
     55          1           0        3.663516    2.576568   -1.763527
     56          1           0       -5.492926   -0.875965   -1.999471
     57          1           0       -5.651587   -1.409945   -0.322864
     58          1           0       -4.767632   -2.400605   -1.485906
 ---------------------------------------------------------------------
 Rotational constants (GHZ):           0.7194921           0.1456560           0.1398250

 **********************************************************************

            Population analysis using the SCF Density.

 **********************************************************************

 Orbital symmetries:
       Occupied  (A) (A) (A) (A) (A) (A) (A) (A) (A) (A) (A) (A)
                 (A) (A) (A) (A) (A) (A) (A) (A) (A) (A) (A) (A)
                 (A) (A) (A) (A) (A) (A) (A) (A) (A) (A) (A) (A)
                 (A) (A) (A) (A) (A) (A) (A) (A) (A) (A) (A) (A)
                 (A) (A) (A) (A) (A) (A) (A) (A) (A) (A) (A) (A)
                 (A) (A) (A) (A) (A) (A) (A) (A) (A) (A) (A) (A)
                 (A) (A) (A) (A) (A) (A) (A) (A) (A) (A) (A) (A)
       Virtual   (A) (A) (A) (A) (A) (A) (A) (A) (A) (A) (A) (A)
                 (A) (A) (A) (A) (A) (A) (A) (A) (A) (A) (A) (A)
                 (A) (A) (A) (A) (A) (A) (A) (A) (A) (A) (A) (A)
                 (A) (A) (A) (A) (A) (A) (A) (A) (A) (A) (A) (A)
                 (A) (A) (A) (A) (A) (A) (A) (A) (A) (A) (A) (A)
                 (A) (A) (A) (A) (A) (A) (A) (A) (A) (A) (A) (A)
                 (A) (A) (A) (A) (A) (A) (A) (A) (A) (A) (A) (A)
                 (A) (A) (A) (A) (A) (A) (A) (A) (A) (A) (A) (A)
                 (A) (A) (A) (A) (A) (A) (A) (A) (A) (A) (A) (A)
                 (A) (A) (A) (A) (A) (A) (A) (A) (A) (A) (A) (A)
                 (A) (A) (A) (A) (A) (A) (A) (A) (A) (A) (A) (A)
                 (A) (A) (A) (A) (A) (A) (A) (A) (A) (A) (A) (A)
                 (A) (A) (A) (A) (A) (A) (A) (A) (A) (A) (A) (A)
                 (A) (A) (A) (A) (A) (A) (A) (A) (A) (A) (A) (A)
                 (A) (A) (A) (A) (A) (A) (A) (A) (A) (A) (A) (A)
                 (A) (A) (A) (A) (A) (A) (A) (A) (A) (A) (A) (A)
                 (A) (A) (A) (A) (A) (A) (A) (A) (A) (A) (A) (A)
                 (A) (A) (A) (A) (A) (A) (A) (A) (A) (A) (A) (A)
                 (A) (A) (A) (A) (A) (A) (A) (A) (A) (A) (A) (A)
                 (A) (A) (A) (A) (A) (A) (A) (A) (A) (A) (A) (A)
                 (A) (A) (A) (A) (A) (A) (A) (A) (A) (A) (A) (A)
                 (A) (A) (A) (A) (A) (A) (A) (A) (A) (A) (A) (A)
                 (A) (A) (A) (A) (A) (A) (A) (A) (A) (A) (A) (A)
                 (A) (A) (A) (A) (A) (A) (A) (A) (A) (A) (A) (A)
                 (A) (A) (A) (A) (A) (A) (A) (A) (A) (A) (A) (A)
                 (A) (A) (A) (A) (A) (A) (A) (A) (A) (A) (A) (A)
                 (A) (A) (A) (A) (A) (A) (A) (A) (A) (A) (A) (A)
                 (A) (A) (A) (A) (A) (A) (A) (A) (A) (A) (A) (A)
                 (A) (A) (A) (A) (A) (A) (A) (A) (A) (A) (A) (A)
                 (A) (A) (A) (A) (A) (A) (A) (A) (A) (A) (A) (A)
                 (A) (A) (A) (A) (A) (A) (A) (A) (A) (A) (A) (A)
                 (A) (A) (A) (A) (A) (A) (A) (A) (A) (A) (A) (A)
                 (A) (A) (A) (A) (A) (A) (A) (A) (A) (A) (A) (A)
                 (A) (A) (A) (A) (A) (A) (A) (A) (A) (A) (A) (A)
                 (A) (A) (A) (A) (A) (A) (A) (A) (A) (A) (A) (A)
                 (A) (A) (A) (A) (A) (A)
 The electronic state is 1-A.
 Alpha  occ. eigenvalues --  -10.17721 -10.17708 -10.17696 -10.17673 -10.17671
 Alpha  occ. eigenvalues --  -10.17599 -10.17572 -10.17544 -10.17530 -10.17523
 Alpha  occ. eigenvalues --  -10.17446 -10.17349 -10.17325 -10.17266 -10.17216
 Alpha  occ. eigenvalues --  -10.17124 -10.16947 -10.16861 -10.16820 -10.16761
 Alpha  occ. eigenvalues --  -10.16752 -10.16751  -0.86777  -0.86272  -0.79401
 Alpha  occ. eigenvalues --   -0.76934  -0.76420  -0.74402  -0.73976  -0.72671
 Alpha  occ. eigenvalues --   -0.70683  -0.69027  -0.66258  -0.65626  -0.64113
 Alpha  occ. eigenvalues --   -0.62867  -0.61504  -0.57925  -0.56286  -0.54806
 Alpha  occ. eigenvalues --   -0.54024  -0.53844  -0.50784  -0.50078  -0.48810
 Alpha  occ. eigenvalues --   -0.47789  -0.47486  -0.46132  -0.44781  -0.42978
 Alpha  occ. eigenvalues --   -0.42888  -0.42072  -0.41354  -0.40708  -0.40448
 Alpha  occ. eigenvalues --   -0.39652  -0.39318  -0.39101  -0.38533  -0.38344
 Alpha  occ. eigenvalues --   -0.37756  -0.37386  -0.37138  -0.36658  -0.35799
 Alpha  occ. eigenvalues --   -0.35042  -0.34228  -0.33801  -0.33145  -0.32794
 Alpha  occ. eigenvalues --   -0.32542  -0.32384  -0.31847  -0.31555  -0.31180
 Alpha  occ. eigenvalues --   -0.30155  -0.29469  -0.29359  -0.28883  -0.28505
 Alpha  occ. eigenvalues --   -0.28054  -0.27356  -0.26937  -0.26085
 Alpha virt. eigenvalues --    0.06610   0.07815   0.08577   0.09514   0.10242
 Alpha virt. eigenvalues --    0.10442   0.11461   0.12378   0.12757   0.13206
 Alpha virt. eigenvalues --    0.13830   0.14208   0.14389   0.14868   0.15273
 Alpha virt. eigenvalues --    0.15617   0.15909   0.16337   0.16597   0.16878
 Alpha virt. eigenvalues --    0.17268   0.17612   0.17858   0.18566   0.18735
 Alpha virt. eigenvalues --    0.19055   0.19377   0.20212   0.20353   0.20673
 Alpha virt. eigenvalues --    0.20817   0.20978   0.21384   0.21654   0.22101
 Alpha virt. eigenvalues --    0.22335   0.22596   0.22796   0.23368   0.23959
 Alpha virt. eigenvalues --    0.24279   0.24723   0.25282   0.25671   0.25703
 Alpha virt. eigenvalues --    0.26511   0.26816   0.27645   0.27942   0.28577
 Alpha virt. eigenvalues --    0.28902   0.30394   0.31002   0.31563   0.32233
 Alpha virt. eigenvalues --    0.33680   0.34099   0.34653   0.35254   0.35678
 Alpha virt. eigenvalues --    0.36372   0.40256   0.47409   0.49673   0.50523
 Alpha virt. eigenvalues --    0.50933   0.51510   0.52700   0.53385   0.54601
 Alpha virt. eigenvalues --    0.55465   0.55601   0.56237   0.56847   0.57271
 Alpha virt. eigenvalues --    0.58154   0.59120   0.60000   0.60453   0.60908
 Alpha virt. eigenvalues --    0.61399   0.62005   0.63418   0.63690   0.63995
 Alpha virt. eigenvalues --    0.64674   0.65644   0.65766   0.66682   0.66837
 Alpha virt. eigenvalues --    0.67815   0.68709   0.69753   0.70083   0.70396
 Alpha virt. eigenvalues --    0.71883   0.72826   0.73915   0.74824   0.75134
 Alpha virt. eigenvalues --    0.75369   0.75863   0.76772   0.77185   0.78130
 Alpha virt. eigenvalues --    0.78867   0.79247   0.80067   0.80600   0.81837
 Alpha virt. eigenvalues --    0.82228   0.83255   0.83417   0.83670   0.84418
 Alpha virt. eigenvalues --    0.85122   0.86025   0.86616   0.86951   0.87242
 Alpha virt. eigenvalues --    0.87381   0.87784   0.88010   0.88282   0.88704
 Alpha virt. eigenvalues --    0.89250   0.89444   0.89493   0.89999   0.90244
 Alpha virt. eigenvalues --    0.91414   0.92078   0.92622   0.92970   0.93052
 Alpha virt. eigenvalues --    0.94115   0.94774   0.94885   0.95214   0.95958
 Alpha virt. eigenvalues --    0.96020   0.96608   0.97286   0.97557   0.97970
 Alpha virt. eigenvalues --    0.99208   0.99499   1.00212   1.00449   1.01156
 Alpha virt. eigenvalues --    1.01444   1.02969   1.03761   1.04441   1.05054
 Alpha virt. eigenvalues --    1.07804   1.09528   1.11646   1.13908   1.15128
 Alpha virt. eigenvalues --    1.17377   1.18681   1.19389   1.21664   1.22993
 Alpha virt. eigenvalues --    1.23601   1.25986   1.27826   1.29222   1.30874
 Alpha virt. eigenvalues --    1.32481   1.34891   1.37409   1.38868   1.39800
 Alpha virt. eigenvalues --    1.42935   1.44602   1.45826   1.46250   1.47577
 Alpha virt. eigenvalues --    1.48751   1.51488   1.51704   1.53143   1.54228
 Alpha virt. eigenvalues --    1.55245   1.56928   1.58099   1.61632   1.61963
 Alpha virt. eigenvalues --    1.62291   1.64945   1.67184   1.68177   1.69258
 Alpha virt. eigenvalues --    1.69479   1.70172   1.70800   1.72648   1.73119
 Alpha virt. eigenvalues --    1.73839   1.74870   1.75565   1.76450   1.77315
 Alpha virt. eigenvalues --    1.78232   1.78504   1.79407   1.80081   1.80580
 Alpha virt. eigenvalues --    1.80828   1.81776   1.82401   1.84175   1.86193
 Alpha virt. eigenvalues --    1.86542   1.87524   1.87974   1.89805   1.90852
 Alpha virt. eigenvalues --    1.92050   1.92727   1.93568   1.94178   1.94754
 Alpha virt. eigenvalues --    1.95907   1.96117   1.96632   1.97163   1.98265
 Alpha virt. eigenvalues --    1.98718   1.99609   2.00139   2.00464   2.01743
 Alpha virt. eigenvalues --    2.02204   2.03233   2.04210   2.04886   2.05155
 Alpha virt. eigenvalues --    2.05804   2.05940   2.06142   2.06870   2.08446
 Alpha virt. eigenvalues --    2.08565   2.08951   2.09708   2.10394   2.10905
 Alpha virt. eigenvalues --    2.11901   2.12401   2.12900   2.13578   2.14064
 Alpha virt. eigenvalues --    2.14409   2.14612   2.14699   2.15359   2.15728
 Alpha virt. eigenvalues --    2.16341   2.16720   2.17798   2.18845   2.19001
 Alpha virt. eigenvalues --    2.20787   2.21656   2.23979   2.25356   2.26633
 Alpha virt. eigenvalues --    2.28083   2.28887   2.29574   2.30081   2.30451
 Alpha virt. eigenvalues --    2.32044   2.33798   2.33944   2.35011   2.35166
 Alpha virt. eigenvalues --    2.37574   2.38040   2.38562   2.38969   2.39985
 Alpha virt. eigenvalues --    2.40817   2.42153   2.42242   2.43116   2.43291
 Alpha virt. eigenvalues --    2.44943   2.46273   2.46867   2.47173   2.47749
 Alpha virt. eigenvalues --    2.48530   2.49481   2.49711   2.50923   2.51779
 Alpha virt. eigenvalues --    2.52798   2.53213   2.53890   2.54645   2.55265
 Alpha virt. eigenvalues --    2.56975   2.58630   2.59023   2.60448   2.61428
 Alpha virt. eigenvalues --    2.62000   2.62718   2.63803   2.64225   2.64983
 Alpha virt. eigenvalues --    2.66187   2.67032   2.68105   2.68690   2.69354
 Alpha virt. eigenvalues --    2.70190   2.70522   2.72229   2.73145   2.73687
 Alpha virt. eigenvalues --    2.74056   2.74997   2.75976   2.76567   2.76975
 Alpha virt. eigenvalues --    2.77474   2.78287   2.78844   2.79655   2.80436
 Alpha virt. eigenvalues --    2.81166   2.81700   2.82044   2.82882   2.83681
 Alpha virt. eigenvalues --    2.84385   2.84729   2.85305   2.86107   2.86590
 Alpha virt. eigenvalues --    2.87248   2.87951   2.89162   2.90301   2.90605
 Alpha virt. eigenvalues --    2.90957   2.91783   2.92474   2.92834   2.93511
 Alpha virt. eigenvalues --    2.93832   2.94502   2.95828   2.96582   2.97471
 Alpha virt. eigenvalues --    2.98414   2.99578   3.02482   3.02842   3.04911
 Alpha virt. eigenvalues --    3.09597   3.13323   3.16220   3.19914   3.20010
 Alpha virt. eigenvalues --    3.23131   3.23790   3.26465   3.29025   3.30422
 Alpha virt. eigenvalues --    3.31308   3.35332   3.35922   3.36445   3.36793
 Alpha virt. eigenvalues --    3.37081   3.38827   3.42712   3.43473   3.43742
 Alpha virt. eigenvalues --    3.44436   3.45553   3.45939   3.46301   3.46949
 Alpha virt. eigenvalues --    3.47042   3.47898   3.48362   3.48894   3.49341
 Alpha virt. eigenvalues --    3.49554   3.49961   3.52578   3.53276   3.54013
 Alpha virt. eigenvalues --    3.55664   3.56849   3.57524   3.60809   4.23304
 Alpha virt. eigenvalues --    4.33235   4.35528   4.39150   4.43242   4.47364
 Alpha virt. eigenvalues --    4.54026   4.57104   4.62361   4.64390   4.64908
 Alpha virt. eigenvalues --    4.67592   4.69536   4.71855   4.77943   4.79972
 Alpha virt. eigenvalues --    4.83960   4.90578   4.94997   4.99033   5.02718
 Alpha virt. eigenvalues --    5.10340
          Condensed to atoms (all electrons):
 Mulliken charges:
               1
     1  C   -0.315863
     2  C   -0.052717
     3  C   -0.048618
     4  C   -0.080107
     5  C   -0.046321
     6  C   -0.051084
     7  C   -0.073569
     8  C   -0.188192
     9  C   -0.195270
    10  C   -0.190589
    11  C   -0.043072
    12  C   -0.048927
    13  C   -0.195267
    14  C   -0.190203
    15  C   -0.076709
    16  C   -0.191318
    17  C   -0.085895
    18  C   -0.036199
    19  C   -0.046476
    20  C   -0.319935
    21  C   -0.323519
    22  C   -0.315081
    23  H    0.099258
    24  H    0.098310
    25  H    0.096828
    26  H    0.080230
    27  H    0.081108
    28  H    0.060654
    29  H    0.078990
    30  H    0.080292
    31  H    0.061129
    32  H    0.084806
    33  H    0.083581
    34  H    0.088997
    35  H    0.087867
    36  H    0.087416
    37  H    0.094284
    38  H    0.081983
    39  H    0.080719
    40  H    0.088015
    41  H    0.089069
    42  H    0.092853
    43  H    0.086490
    44  H    0.061354
    45  H    0.082243
    46  H    0.084334
    47  H    0.061524
    48  H    0.080494
    49  H    0.080373
    50  H    0.097457
    51  H    0.098665
    52  H    0.097574
    53  H    0.101554
    54  H    0.096280
    55  H    0.096522
    56  H    0.097763
    57  H    0.099333
    58  H    0.096581
 Sum of Mulliken charges =  -0.00000
 Mulliken charges with hydrogens summed into heavy atoms:
               1
     1  C   -0.021467
     2  C    0.027513
     3  C    0.032490
     4  C   -0.019452
     5  C    0.032669
     6  C    0.029209
     7  C   -0.012440
     8  C   -0.019805
     9  C   -0.018406
    10  C   -0.008890
    11  C    0.038911
    12  C    0.031792
    13  C   -0.018183
    14  C   -0.010860
    15  C   -0.015355
    16  C   -0.024740
    17  C   -0.024371
    18  C    0.044295
    19  C    0.033897
    20  C   -0.026239
    21  C   -0.029164
    22  C   -0.021404
 Electronic spatial extent (au):  <R**2>=           8431.3236
 Charge=             -0.0000 electrons
 Dipole moment (field-independent basis, Debye):
    X=              0.0343    Y=              0.0320    Z=              0.0082  Tot=              0.0476
 Quadrupole moment (field-independent basis, Debye-Ang):
   XX=           -141.6305   YY=           -139.3481   ZZ=           -139.2979
   XY=              0.1998   XZ=              0.1242   YZ=              0.0894
 Traceless Quadrupole moment (field-independent basis, Debye-Ang):
   XX=             -1.5383   YY=              0.7441   ZZ=              0.7943
   XY=              0.1998   XZ=              0.1242   YZ=              0.0894
 Octapole moment (field-independent basis, Debye-Ang**2):
  XXX=              3.9614  YYY=              0.0081  ZZZ=             -0.1919  XYY=              0.4897
  XXY=              3.1058  XXZ=             -0.4985  XZZ=             -1.4078  YZZ=             -0.2469
  YYZ=              1.2540  XYZ=              1.1035
 Hexadecapole moment (field-independent basis, Debye-Ang**3):
 XXXX=          -9382.0161 YYYY=          -1403.4516 ZZZZ=          -1020.4232 XXXY=             24.2196
 XXXZ=             -6.9288 YYYX=              0.8234 YYYZ=              5.0393 ZZZX=              4.2524
 ZZZY=              0.5854 XXYY=          -1805.7660 XXZZ=          -1717.7270 YYZZ=           -412.6914
 XXYZ=             -4.9260 YYXZ=              1.3635 ZZXY=             -5.4648
 N-N= 2.010614451656D+03 E-N=-6.009654525953D+03  KE= 8.516137163660D+02
 Unable to Open any file for archive entry.
 1\1\GINC-HPCS11\FOpt\RB3LYP\6-31G(d,p)\C22H36\Z002445\09-Dec-2025\0\\#
  opt=(maxstep=5) B3LYP/6-31G** SCF=(XQC,MaxCycle=200,noincore) Int=(Gr
 id=UltraFine)\\m2g_addpoly_twistboat\\0,1\C,5.1336830576,1.5279155082,
 -0.509803519\C,3.7063292846,1.1195944487,-0.1167212127\C,3.5536137933,
 0.3025445377,1.2294563492\C,2.928858543,-1.036672557,0.744874611\C,1.4
 36277379,-0.8616969169,0.3584612336\C,1.5214902396,0.0255646286,-0.952
 0249253\C,3.0650898894,0.1613081237,-1.1603530748\C,3.5627122084,-1.20
 71664793,-0.6504133119\C,0.7650110779,1.3706363224,-1.0240939448\C,-0.
 7690080842,1.3978625727,-0.7716232577\C,-1.5217691861,0.1217123676,-1.
 1682703048\C,-1.556626506,-1.0483109152,-0.1011654678\C,-0.9946774984,
 -0.8060405342,1.3158737809\C,0.4941577166,-0.3796440438,1.4682603691\C
 ,-3.0567688721,-1.4797663109,-0.134614255\C,-3.3880199803,-1.267029152
 9,-1.6292227523\C,-3.0107678406,0.232777833,-1.6093859067\C,-4.0056669
 251,0.7338063848,-0.5252946236\C,-3.9722069145,-0.4179881246,0.5398757
 817\C,-5.3624402088,-0.9553896706,0.8983815649\C,-3.8445063342,2.14458
 2745,0.0467070774\C,4.8364542017,0.0888148713,2.0433987519\H,5.7945365
 311,0.6688010916,-0.6616188705\H,5.5950112819,2.1679636476,0.248832733
 3\H,5.1143048088,2.0949442199,-1.4470848131\H,3.1342239685,2.048634736
 ,-0.0393241342\H,2.847240466,0.8260382964,1.8837367452\H,3.0844009149,
 -1.8599284707,1.4508891582\H,1.0958048528,-1.8607773433,0.0592100861\H
 ,1.153037118,-0.5843069292,-1.7856418219\H,3.3303234029,0.418576206,-2
 .1916267373\H,4.6527169278,-1.3003079431,-0.634701894\H,3.1537357448,-
 2.0562969727,-1.2091990466\H,1.216087562,2.1016782095,-0.3455746056\H,
 0.9533710401,1.7616067931,-2.0334835742\H,-1.1757310295,2.2460722676,-
 1.3360955497\H,-0.9602070812,1.6329607988,0.2782832248\H,-1.0127452586
 ,-0.2696075904,-2.058476347\H,-0.99061794,-1.8901825936,-0.5172086424\
 H,-1.1357999504,-1.7519306443,1.8564738795\H,-1.603887751,-0.074029176
 7,1.8555922464\H,0.5615417454,0.7083264219,1.5653091496\H,0.8493197965
 ,-0.775640977,2.4287752738\H,-3.2135862496,-2.4910974692,0.2561542451\
 H,-2.7644926431,-1.8673308549,-2.3006486916\H,-4.4386479856,-1.4483249
 413,-1.8776847038\H,-3.1213325705,0.7681613974,-2.5591401793\H,-4.9932
 186952,0.7091627522,-1.009238192\H,-3.520353772,-0.0481444171,1.465999
 415\H,-5.3050286753,-1.719180756,1.6821159134\H,-5.8584481909,-1.40565
 26245,0.0310949938\H,-6.0108834733,-0.1515641395,1.2659934024\H,-2.942
 3266806,2.2532571384,0.6531214392\H,-4.6984768436,2.3907505737,0.68849
 77864\H,-3.8064468448,2.8984481798,-0.7478470142\H,5.2943381457,1.0381
 80998,2.3394192196\H,5.5895063608,-0.4836361975,1.4919119702\H,4.61141
 19263,-0.4656393248,2.9610809724\\Version=ES64L-G16RevC.02\State=1-A\H
 F=-860.0541931\RMSD=1.906e-09\RMSF=3.137e-06\Dipole=-0.0131577,0.00628
 19,-0.0117629\Quadrupole=-1.147566,0.4942286,0.6533375,-0.1372234,0.05
 81322,0.0147006\PG=C01 [X(C22H36)]\\@
 The archive entry for this job was punched.


 In the beginning the Universe was created.
 This has made a lot of people very angry
 and been widely regarded as a bad move.
                               -D.Adams
 Job cpu time:       0 days  2 hours  9 minutes 37.2 seconds.
 Elapsed time:       0 days  0 hours  4 minutes 28.7 seconds.
 File lengths (MBytes):  RWF=    168 Int=      0 D2E=      0 Chk=     24 Scr=      1
 Normal termination of Gaussian 16 at Tue Dec  9 15:57:29 2025.
