 Entering Gaussian System, Link 0=g16
 Input=dcbod_chair.com
 Output=dcbod_chair.log
 Initial command:
 /usr/local/gaussian16c02/g16/l1.exe "/scr/Gau-860140.inp" -scrdir="/scr/"
 Entering Link 1 = /usr/local/gaussian16c02/g16/l1.exe PID=    860141.
  
 Copyright (c) 1988-2021, Gaussian, Inc.  All Rights Reserved.
  
 This is part of the Gaussian(R) 16 program.  It is based on
 the Gaussian(R) 09 system (copyright 2009, Gaussian, Inc.),
 the Gaussian(R) 03 system (copyright 2003, Gaussian, Inc.),
 the Gaussian(R) 98 system (copyright 1998, Gaussian, Inc.),
 the Gaussian(R) 94 system (copyright 1995, Gaussian, Inc.),
 the Gaussian 92(TM) system (copyright 1992, Gaussian, Inc.),
 the Gaussian 90(TM) system (copyright 1990, Gaussian, Inc.),
 the Gaussian 88(TM) system (copyright 1988, Gaussian, Inc.),
 the Gaussian 86(TM) system (copyright 1986, Carnegie Mellon
 University), and the Gaussian 82(TM) system (copyright 1983,
 Carnegie Mellon University). Gaussian is a federally registered
 trademark of Gaussian, Inc.
  
 This software contains proprietary and confidential information,
 including trade secrets, belonging to Gaussian, Inc.
  
 This software is provided under written license and may be
 used, copied, transmitted, or stored only in accord with that
 written license.
  
 The following legend is applicable only to US Government
 contracts under FAR:
  
                    RESTRICTED RIGHTS LEGEND
  
 Use, reproduction and disclosure by the US Government is
 subject to restrictions as set forth in subparagraphs (a)
 and (c) of the Commercial Computer Software - Restricted
 Rights clause in FAR 52.227-19.
  
 Gaussian, Inc.
 340 Quinnipiac St., Bldg. 40, Wallingford CT 06492
  
  
 ---------------------------------------------------------------
 Warning -- This program may not be used in any manner that
 competes with the business of Gaussian, Inc. or will provide
 assistance to any competitor of Gaussian, Inc.  The licensee
 of this program is prohibited from giving any competitor of
 Gaussian, Inc. access to this program.  By using this program,
 the user acknowledges that Gaussian, Inc. is engaged in the
 business of creating and licensing software in the field of
 computational chemistry and represents and warrants to the
 licensee that it is not a competitor of Gaussian, Inc. and that
 it will not use this program in any manner prohibited above.
 ---------------------------------------------------------------
  

 Cite this work as:
 Gaussian 16, Revision C.02,
 M. J. Frisch, G. W. Trucks, H. B. Schlegel, G. E. Scuseria, 
 M. A. Robb, J. R. Cheeseman, G. Scalmani, V. Barone, 
 G. A. Petersson, H. Nakatsuji, X. Li, M. Caricato, A. V. Marenich, 
 J. Bloino, B. G. Janesko, R. Gomperts, B. Mennucci, H. P. Hratchian, 
 J. V. Ortiz, A. F. Izmaylov, J. L. Sonnenberg, D. Williams-Young, 
 F. Ding, F. Lipparini, F. Egidi, J. Goings, B. Peng, A. Petrone, 
 T. Henderson, D. Ranasinghe, V. G. Zakrzewski, J. Gao, N. Rega, 
 G. Zheng, W. Liang, M. Hada, M. Ehara, K. Toyota, R. Fukuda, 
 J. Hasegawa, M. Ishida, T. Nakajima, Y. Honda, O. Kitao, H. Nakai, 
 T. Vreven, K. Throssell, J. A. Montgomery, Jr., J. E. Peralta, 
 F. Ogliaro, M. J. Bearpark, J. J. Heyd, E. N. Brothers, K. N. Kudin, 
 V. N. Staroverov, T. A. Keith, R. Kobayashi, J. Normand, 
 K. Raghavachari, A. P. Rendell, J. C. Burant, S. S. Iyengar, 
 J. Tomasi, M. Cossi, J. M. Millam, M. Klene, C. Adamo, R. Cammi, 
 J. W. Ochterski, R. L. Martin, K. Morokuma, O. Farkas, 
 J. B. Foresman, and D. J. Fox, Gaussian, Inc., Wallingford CT, 2019.
 
 ******************************************
 Gaussian 16:  ES64L-G16RevC.02  7-Dec-2021
                 9-Dec-2025 
 ******************************************
 %chk=dcbod_chair
 %mem=4GB
 %nproc=32
 Will use up to   32 processors via shared memory.
 ----------------------------------------------------------------------
 # opt=(maxstep=5) B3LYP/6-31G** SCF=(XQC,MaxCycle=200,noincore) Int=(G
 rid=UltraFine)
 ----------------------------------------------------------------------
 1/8=5,18=20,19=15,26=4,38=1/1,3;
 2/9=110,12=2,17=6,18=5,40=1/2;
 3/5=1,6=6,7=101,11=2,25=1,30=1,71=1,74=-5,75=-5/1,2,3;
 4//1;
 5/5=4,7=200,8=3,13=1,38=5/2,8;
 6/7=2,8=2,9=2,10=2,28=1/1;
 7//1,2,3,16;
 1/8=5,18=20,19=15,26=4/3(2);
 2/9=110/2;
 99//99;
 2/9=110/2;
 3/5=1,6=6,7=101,11=2,25=1,30=1,71=1,74=-5,75=-5/1,2,3;
 4/5=5,16=3,69=1/1;
 5/5=4,7=200,8=3,13=1,38=5/2,8;
 7//1,2,3,16;
 1/8=5,18=20,19=15,26=4/3(-5);
 2/9=110/2;
 6/7=2,8=2,9=2,10=2,19=2,28=1/1;
 99/9=1/99;
 ---------------
 m2g_dcbod_chair
 ---------------
 Symbolic Z-matrix:
 Charge =  0 Multiplicity = 1
 C                    -1.7056   -0.8304    0.0048 
 C                    -1.8049    0.5853    0.0404 
 C                    -2.9493    1.2067   -0.4933 
 C                    -3.9839    0.4464   -1.0395 
 C                    -3.8865   -0.9429   -1.0744 
 C                    -2.754    -1.5778   -0.5632 
 C                    -0.6919    1.4563    0.5805 
 C                     0.4801    1.5635   -0.4145 
 C                     1.7056    0.8304    0.0854 
 C                     1.8049   -0.5853    0.0498 
 C                     2.9493   -1.2067    0.5834 
 C                     3.9839   -0.4464    1.1296 
 C                     3.8865    0.9429    1.1645 
 C                     2.754     1.5778    0.6534 
 C                     0.6919   -1.4563   -0.4903 
 C                    -0.4801   -1.5635    0.5046 
 H                    -3.0406    2.2859   -0.492 
 H                    -4.86      0.9368   -1.444 
 H                    -4.687    -1.5299   -1.5059 
 H                    -2.6939   -2.6579   -0.6162 
 H                    -1.0806    2.4792    0.7811 
 H                    -0.3587    1.0825    1.5723 
 H                     0.7216    2.6394   -0.5624 
 H                     0.1989    1.1968   -1.4249 
 H                     3.0406   -2.2859    0.5822 
 H                     4.86     -0.9367    1.5341 
 H                     4.687     1.5299    1.5961 
 H                     2.6939    2.6579    0.7064 
 H                     0.3587   -1.0825   -1.4821 
 H                     1.0806   -2.4792   -0.691 
 H                    -0.7216   -2.6394    0.6526 
 H                    -0.1989   -1.1968    1.5151 
 

 GradGradGradGradGradGradGradGradGradGradGradGradGradGradGradGradGradGrad
 Berny optimization.
 Initialization pass.
                           ----------------------------
                           !    Initial Parameters    !
                           ! (Angstroms and Degrees)  !
 --------------------------                            --------------------------
 ! Name  Definition              Value          Derivative Info.                !
 --------------------------------------------------------------------------------
 ! R1    R(1,2)                  1.4196         estimate D2E/DX2                !
 ! R2    R(1,6)                  1.4073         estimate D2E/DX2                !
 ! R3    R(1,16)                 1.513          estimate D2E/DX2                !
 ! R4    R(2,3)                  1.4073         estimate D2E/DX2                !
 ! R5    R(2,7)                  1.513          estimate D2E/DX2                !
 ! R6    R(3,4)                  1.3953         estimate D2E/DX2                !
 ! R7    R(3,17)                 1.0831         estimate D2E/DX2                !
 ! R8    R(4,5)                  1.3931         estimate D2E/DX2                !
 ! R9    R(4,18)                 1.0824         estimate D2E/DX2                !
 ! R10   R(5,6)                  1.3953         estimate D2E/DX2                !
 ! R11   R(5,19)                 1.0824         estimate D2E/DX2                !
 ! R12   R(6,20)                 1.0831         estimate D2E/DX2                !
 ! R13   R(7,8)                  1.5411         estimate D2E/DX2                !
 ! R14   R(7,21)                 1.1125         estimate D2E/DX2                !
 ! R15   R(7,22)                 1.111          estimate D2E/DX2                !
 ! R16   R(8,9)                  1.513          estimate D2E/DX2                !
 ! R17   R(8,23)                 1.1125         estimate D2E/DX2                !
 ! R18   R(8,24)                 1.1111         estimate D2E/DX2                !
 ! R19   R(9,10)                 1.4196         estimate D2E/DX2                !
 ! R20   R(9,14)                 1.4073         estimate D2E/DX2                !
 ! R21   R(10,11)                1.4073         estimate D2E/DX2                !
 ! R22   R(10,15)                1.513          estimate D2E/DX2                !
 ! R23   R(11,12)                1.3953         estimate D2E/DX2                !
 ! R24   R(11,25)                1.0831         estimate D2E/DX2                !
 ! R25   R(12,13)                1.3931         estimate D2E/DX2                !
 ! R26   R(12,26)                1.0824         estimate D2E/DX2                !
 ! R27   R(13,14)                1.3953         estimate D2E/DX2                !
 ! R28   R(13,27)                1.0824         estimate D2E/DX2                !
 ! R29   R(14,28)                1.0831         estimate D2E/DX2                !
 ! R30   R(15,16)                1.5411         estimate D2E/DX2                !
 ! R31   R(15,29)                1.111          estimate D2E/DX2                !
 ! R32   R(15,30)                1.1125         estimate D2E/DX2                !
 ! R33   R(16,31)                1.1126         estimate D2E/DX2                !
 ! R34   R(16,32)                1.1111         estimate D2E/DX2                !
 ! A1    A(2,1,6)              119.186          estimate D2E/DX2                !
 ! A2    A(2,1,16)             122.1121         estimate D2E/DX2                !
 ! A3    A(6,1,16)             118.6484         estimate D2E/DX2                !
 ! A4    A(1,2,3)              119.1888         estimate D2E/DX2                !
 ! A5    A(1,2,7)              122.1128         estimate D2E/DX2                !
 ! A6    A(3,2,7)              118.6446         estimate D2E/DX2                !
 ! A7    A(2,3,4)              120.7181         estimate D2E/DX2                !
 ! A8    A(2,3,17)             120.5348         estimate D2E/DX2                !
 ! A9    A(4,3,17)             118.7464         estimate D2E/DX2                !
 ! A10   A(3,4,5)              120.0908         estimate D2E/DX2                !
 ! A11   A(3,4,18)             119.9717         estimate D2E/DX2                !
 ! A12   A(5,4,18)             119.9356         estimate D2E/DX2                !
 ! A13   A(4,5,6)              120.0876         estimate D2E/DX2                !
 ! A14   A(4,5,19)             119.9407         estimate D2E/DX2                !
 ! A15   A(6,5,19)             119.9699         estimate D2E/DX2                !
 ! A16   A(1,6,5)              120.7219         estimate D2E/DX2                !
 ! A17   A(1,6,20)             120.5347         estimate D2E/DX2                !
 ! A18   A(5,6,20)             118.7427         estimate D2E/DX2                !
 ! A19   A(2,7,8)              111.6541         estimate D2E/DX2                !
 ! A20   A(2,7,21)             109.6736         estimate D2E/DX2                !
 ! A21   A(2,7,22)             110.2182         estimate D2E/DX2                !
 ! A22   A(8,7,21)             108.552          estimate D2E/DX2                !
 ! A23   A(8,7,22)             111.8188         estimate D2E/DX2                !
 ! A24   A(21,7,22)            104.6649         estimate D2E/DX2                !
 ! A25   A(7,8,9)              111.6508         estimate D2E/DX2                !
 ! A26   A(7,8,23)             108.5525         estimate D2E/DX2                !
 ! A27   A(7,8,24)             111.8209         estimate D2E/DX2                !
 ! A28   A(9,8,23)             109.6744         estimate D2E/DX2                !
 ! A29   A(9,8,24)             110.2153         estimate D2E/DX2                !
 ! A30   A(23,8,24)            104.6681         estimate D2E/DX2                !
 ! A31   A(8,9,10)             122.1112         estimate D2E/DX2                !
 ! A32   A(8,9,14)             118.6495         estimate D2E/DX2                !
 ! A33   A(10,9,14)            119.186          estimate D2E/DX2                !
 ! A34   A(9,10,11)            119.1898         estimate D2E/DX2                !
 ! A35   A(9,10,15)            122.1128         estimate D2E/DX2                !
 ! A36   A(11,10,15)           118.6438         estimate D2E/DX2                !
 ! A37   A(10,11,12)           120.7172         estimate D2E/DX2                !
 ! A38   A(10,11,25)           120.538          estimate D2E/DX2                !
 ! A39   A(12,11,25)           118.744          estimate D2E/DX2                !
 ! A40   A(11,12,13)           120.0908         estimate D2E/DX2                !
 ! A41   A(11,12,26)           119.9764         estimate D2E/DX2                !
 ! A42   A(13,12,26)           119.9309         estimate D2E/DX2                !
 ! A43   A(12,13,14)           120.0886         estimate D2E/DX2                !
 ! A44   A(12,13,27)           119.9396         estimate D2E/DX2                !
 ! A45   A(14,13,27)           119.9699         estimate D2E/DX2                !
 ! A46   A(9,14,13)            120.7209         estimate D2E/DX2                !
 ! A47   A(9,14,28)            120.5347         estimate D2E/DX2                !
 ! A48   A(13,14,28)           118.7437         estimate D2E/DX2                !
 ! A49   A(10,15,16)           111.6565         estimate D2E/DX2                !
 ! A50   A(10,15,29)           110.2182         estimate D2E/DX2                !
 ! A51   A(10,15,30)           109.6753         estimate D2E/DX2                !
 ! A52   A(16,15,29)           111.8162         estimate D2E/DX2                !
 ! A53   A(16,15,30)           108.5553         estimate D2E/DX2                !
 ! A54   A(29,15,30)           104.6599         estimate D2E/DX2                !
 ! A55   A(1,16,15)            111.6562         estimate D2E/DX2                !
 ! A56   A(1,16,31)            109.6758         estimate D2E/DX2                !
 ! A57   A(1,16,32)            110.2122         estimate D2E/DX2                !
 ! A58   A(15,16,31)           108.5561         estimate D2E/DX2                !
 ! A59   A(15,16,32)           111.82           estimate D2E/DX2                !
 ! A60   A(31,16,32)           104.6611         estimate D2E/DX2                !
 ! D1    D(6,1,2,3)             -0.0052         estimate D2E/DX2                !
 ! D2    D(6,1,2,7)           -177.2999         estimate D2E/DX2                !
 ! D3    D(16,1,2,3)           177.2965         estimate D2E/DX2                !
 ! D4    D(16,1,2,7)             0.0018         estimate D2E/DX2                !
 ! D5    D(2,1,6,5)             -0.6669         estimate D2E/DX2                !
 ! D6    D(2,1,6,20)           179.0107         estimate D2E/DX2                !
 ! D7    D(16,1,6,5)          -178.0627         estimate D2E/DX2                !
 ! D8    D(16,1,6,20)            1.6149         estimate D2E/DX2                !
 ! D9    D(2,1,16,15)          -75.5714         estimate D2E/DX2                !
 ! D10   D(2,1,16,31)          164.0566         estimate D2E/DX2                !
 ! D11   D(2,1,16,32)           49.3429         estimate D2E/DX2                !
 ! D12   D(6,1,16,15)          101.7443         estimate D2E/DX2                !
 ! D13   D(6,1,16,31)          -18.6277         estimate D2E/DX2                !
 ! D14   D(6,1,16,32)         -133.3414         estimate D2E/DX2                !
 ! D15   D(1,2,3,4)              0.675          estimate D2E/DX2                !
 ! D16   D(1,2,3,17)          -179.0093         estimate D2E/DX2                !
 ! D17   D(7,2,3,4)            178.0641         estimate D2E/DX2                !
 ! D18   D(7,2,3,17)            -1.6202         estimate D2E/DX2                !
 ! D19   D(1,2,7,8)             75.57           estimate D2E/DX2                !
 ! D20   D(1,2,7,21)          -164.0659         estimate D2E/DX2                !
 ! D21   D(1,2,7,22)           -49.3456         estimate D2E/DX2                !
 ! D22   D(3,2,7,8)           -101.7388         estimate D2E/DX2                !
 ! D23   D(3,2,7,21)            18.6253         estimate D2E/DX2                !
 ! D24   D(3,2,7,22)           133.3456         estimate D2E/DX2                !
 ! D25   D(2,3,4,5)             -0.6785         estimate D2E/DX2                !
 ! D26   D(2,3,4,18)           179.8155         estimate D2E/DX2                !
 ! D27   D(17,3,4,5)           179.0113         estimate D2E/DX2                !
 ! D28   D(17,3,4,18)           -0.4946         estimate D2E/DX2                !
 ! D29   D(3,4,5,6)              0.0003         estimate D2E/DX2                !
 ! D30   D(3,4,5,19)          -179.5079         estimate D2E/DX2                !
 ! D31   D(18,4,5,6)           179.5064         estimate D2E/DX2                !
 ! D32   D(18,4,5,19)           -0.0017         estimate D2E/DX2                !
 ! D33   D(4,5,6,1)              0.6755         estimate D2E/DX2                !
 ! D34   D(4,5,6,20)          -179.0078         estimate D2E/DX2                !
 ! D35   D(19,5,6,1)          -179.8165         estimate D2E/DX2                !
 ! D36   D(19,5,6,20)            0.5002         estimate D2E/DX2                !
 ! D37   D(2,7,8,9)           -110.2299         estimate D2E/DX2                !
 ! D38   D(2,7,8,23)           128.752          estimate D2E/DX2                !
 ! D39   D(2,7,8,24)            13.7852         estimate D2E/DX2                !
 ! D40   D(21,7,8,9)           128.7511         estimate D2E/DX2                !
 ! D41   D(21,7,8,23)            7.733          estimate D2E/DX2                !
 ! D42   D(21,7,8,24)         -107.2337         estimate D2E/DX2                !
 ! D43   D(22,7,8,9)            13.7898         estimate D2E/DX2                !
 ! D44   D(22,7,8,23)         -107.2284         estimate D2E/DX2                !
 ! D45   D(22,7,8,24)          137.8049         estimate D2E/DX2                !
 ! D46   D(7,8,9,10)            75.5761         estimate D2E/DX2                !
 ! D47   D(7,8,9,14)          -101.7437         estimate D2E/DX2                !
 ! D48   D(23,8,9,10)         -164.0608         estimate D2E/DX2                !
 ! D49   D(23,8,9,14)           18.6194         estimate D2E/DX2                !
 ! D50   D(24,8,9,10)          -49.3379         estimate D2E/DX2                !
 ! D51   D(24,8,9,14)          133.3424         estimate D2E/DX2                !
 ! D52   D(8,9,10,11)         -177.3047         estimate D2E/DX2                !
 ! D53   D(8,9,10,15)           -0.0059         estimate D2E/DX2                !
 ! D54   D(14,9,10,11)           0.0011         estimate D2E/DX2                !
 ! D55   D(14,9,10,15)         177.2999         estimate D2E/DX2                !
 ! D56   D(8,9,14,13)          178.0708         estimate D2E/DX2                !
 ! D57   D(8,9,14,28)           -1.611          estimate D2E/DX2                !
 ! D58   D(10,9,14,13)           0.6712         estimate D2E/DX2                !
 ! D59   D(10,9,14,28)        -179.0107         estimate D2E/DX2                !
 ! D60   D(9,10,11,12)          -0.6708         estimate D2E/DX2                !
 ! D61   D(9,10,11,25)         179.0037         estimate D2E/DX2                !
 ! D62   D(15,10,11,12)       -178.0639         estimate D2E/DX2                !
 ! D63   D(15,10,11,25)          1.6105         estimate D2E/DX2                !
 ! D64   D(9,10,15,16)         -75.5683         estimate D2E/DX2                !
 ! D65   D(9,10,15,29)          49.3456         estimate D2E/DX2                !
 ! D66   D(9,10,15,30)         164.0608         estimate D2E/DX2                !
 ! D67   D(11,10,15,16)        101.7447         estimate D2E/DX2                !
 ! D68   D(11,10,15,29)       -133.3414         estimate D2E/DX2                !
 ! D69   D(11,10,15,30)        -18.6262         estimate D2E/DX2                !
 ! D70   D(10,11,12,13)          0.6743         estimate D2E/DX2                !
 ! D71   D(10,11,12,26)       -179.8195         estimate D2E/DX2                !
 ! D72   D(25,11,12,13)       -179.0059         estimate D2E/DX2                !
 ! D73   D(25,11,12,26)          0.5003         estimate D2E/DX2                !
 ! D74   D(11,12,13,14)          0.004          estimate D2E/DX2                !
 ! D75   D(11,12,13,27)        179.5024         estimate D2E/DX2                !
 ! D76   D(26,12,13,14)       -179.5025         estimate D2E/DX2                !
 ! D77   D(26,12,13,27)         -0.004          estimate D2E/DX2                !
 ! D78   D(12,13,14,9)          -0.6798         estimate D2E/DX2                !
 ! D79   D(12,13,14,28)        179.0077         estimate D2E/DX2                !
 ! D80   D(27,13,14,9)         179.8219         estimate D2E/DX2                !
 ! D81   D(27,13,14,28)         -0.4906         estimate D2E/DX2                !
 ! D82   D(10,15,16,1)         110.2267         estimate D2E/DX2                !
 ! D83   D(10,15,16,31)       -128.7475         estimate D2E/DX2                !
 ! D84   D(10,15,16,32)        -13.7876         estimate D2E/DX2                !
 ! D85   D(29,15,16,1)         -13.7927         estimate D2E/DX2                !
 ! D86   D(29,15,16,31)        107.233          estimate D2E/DX2                !
 ! D87   D(29,15,16,32)       -137.8071         estimate D2E/DX2                !
 ! D88   D(30,15,16,1)        -128.7486         estimate D2E/DX2                !
 ! D89   D(30,15,16,31)         -7.7228         estimate D2E/DX2                !
 ! D90   D(30,15,16,32)        107.2371         estimate D2E/DX2                !
 --------------------------------------------------------------------------------
 Trust Radius=5.00D-02 FncErr=1.00D-07 GrdErr=1.00D-06 EigMax=2.50D+02 EigMin=1.00D-04
 Number of steps in this run=    192 maximum allowed number of steps=    192.
 GradGradGradGradGradGradGradGradGradGradGradGradGradGradGradGradGradGrad

                          Input orientation:                          
 ---------------------------------------------------------------------
 Center     Atomic      Atomic             Coordinates (Angstroms)
 Number     Number       Type             X           Y           Z
 ---------------------------------------------------------------------
      1          6           0       -1.705600   -0.830400    0.004800
      2          6           0       -1.804900    0.585300    0.040400
      3          6           0       -2.949300    1.206700   -0.493300
      4          6           0       -3.983900    0.446400   -1.039500
      5          6           0       -3.886500   -0.942900   -1.074400
      6          6           0       -2.754000   -1.577800   -0.563200
      7          6           0       -0.691900    1.456300    0.580500
      8          6           0        0.480100    1.563500   -0.414500
      9          6           0        1.705600    0.830400    0.085400
     10          6           0        1.804900   -0.585300    0.049800
     11          6           0        2.949300   -1.206700    0.583400
     12          6           0        3.983900   -0.446400    1.129600
     13          6           0        3.886500    0.942900    1.164500
     14          6           0        2.754000    1.577800    0.653400
     15          6           0        0.691900   -1.456300   -0.490300
     16          6           0       -0.480100   -1.563500    0.504600
     17          1           0       -3.040600    2.285900   -0.492000
     18          1           0       -4.860000    0.936800   -1.444000
     19          1           0       -4.687000   -1.529900   -1.505900
     20          1           0       -2.693900   -2.657900   -0.616200
     21          1           0       -1.080600    2.479200    0.781100
     22          1           0       -0.358700    1.082500    1.572300
     23          1           0        0.721600    2.639400   -0.562400
     24          1           0        0.198900    1.196800   -1.424900
     25          1           0        3.040600   -2.285900    0.582200
     26          1           0        4.860000   -0.936700    1.534100
     27          1           0        4.687000    1.529900    1.596100
     28          1           0        2.693900    2.657900    0.706400
     29          1           0        0.358700   -1.082500   -1.482100
     30          1           0        1.080600   -2.479200   -0.691000
     31          1           0       -0.721600   -2.639400    0.652600
     32          1           0       -0.198900   -1.196800    1.515100
 ---------------------------------------------------------------------
                    Distance matrix (angstroms):
                    1          2          3          4          5
     1  C    0.000000
     2  C    1.419625   0.000000
     3  C    2.438169   1.407347   0.000000
     4  C    2.812727   2.435881   1.395273   0.000000
     5  C    2.435909   2.812691   2.415947   1.393147   0.000000
     6  C    1.407257   2.438058   2.792216   2.415968   1.395342
     7  C    2.566713   1.512983   2.512210   3.805465   4.324387
     8  C    3.268617   2.526863   3.448811   4.643903   5.077864
     9  C    3.794870   3.519334   4.705804   5.812337   5.980076
    10  C    3.519334   3.794871   5.109661   5.980066   5.812378
    11  C    4.705792   5.109651   6.463533   7.309980   7.038896
    12  C    5.812318   5.980047   7.309980   8.305897   8.188243
    13  C    5.980057   5.812359   7.038896   8.188243   8.305928
    14  C    5.109613   4.705783   5.829260   7.038840   7.309956
    15  C    2.526832   3.268606   4.511088   5.077893   4.643974
    16  C    1.512973   2.566694   3.842754   4.324414   3.805515
    17  H    3.426421   2.168512   1.083056   2.138535   3.388198
    18  H    3.895158   3.414767   2.151151   1.082434   2.148855
    19  H    3.414712   3.895076   3.396165   2.148870   1.082387
    20  H    2.168440   3.426338   3.874980   3.388209   2.138567
    21  H    3.456403   2.158727   2.595263   3.984471   4.798617
    22  H    2.816093   2.164583   3.315620   4.513114   4.853106
    23  H    4.272298   3.311480   3.941181   5.213310   5.859147
    24  H    3.127411   2.556609   3.283160   4.267019   4.625112
    25  H    4.997828   5.658287   7.016684   7.709668   7.247944
    26  H    6.742193   6.997751   8.348035   9.314019   9.127189
    27  H    6.997756   6.742198   7.923581   9.127150   9.314033
    28  H    5.658275   4.997842   5.949031   7.247890   7.709648
    29  H    2.556513   3.127416   4.142587   4.625106   4.267017
    30  H    3.311433   4.272261   5.464891   5.859159   5.213377
    31  H    2.158792   3.456446   4.590013   4.798746   3.984625
    32  H    2.164578   2.816000   4.168355   4.853072   4.513133
                    6          7          8          9         10
     6  C    0.000000
     7  C    3.842664   0.000000
     8  C    4.511018   1.541136   0.000000
     9  C    5.109613   2.526832   1.513006   0.000000
    10  C    4.705783   3.268606   2.566712   1.419625   0.000000
    11  C    5.829240   4.511088   3.842754   2.438149   1.407309
    12  C    7.038816   5.077882   4.324414   2.812690   2.435837
    13  C    7.309933   4.643962   3.805515   2.435865   2.812652
    14  C    6.463435   3.448812   2.512217   1.407257   2.438058
    15  C    3.448812   3.397757   3.028167   2.566713   1.512983
    16  C    2.512175   3.028170   3.397772   3.268604   2.526845
    17  H    3.874969   2.711989   3.594885   4.997828   5.658287
    18  H    3.396212   4.662782   5.474422   6.742217   6.997794
    19  H    2.151155   5.406596   6.120392   6.997756   6.742198
    20  H    1.083068   4.729348   5.285374   5.658275   4.997842
    21  H    4.589843   1.112498   2.168813   3.311412   4.272244
    22  H    4.168335   1.111043   2.209597   2.556513   3.127416
    23  H    5.464849   2.168854   1.112545   2.158792   3.456446
    24  H    4.142529   2.209637   1.111058   2.164578   2.816000
    25  H    5.949011   5.285416   4.729424   3.426421   2.168512
    26  H    7.923552   6.120408   5.406622   3.895076   3.414713
    27  H    8.347985   5.474434   4.662794   3.414712   3.895076
    28  H    7.016598   3.594904   2.712017   2.168440   3.426338
    29  H    3.283078   3.435635   2.855840   2.816093   2.164583
    30  H    3.941194   4.499625   4.096398   3.456425   2.158762
    31  H    2.595345   4.096442   4.499684   4.272298   3.311480
    32  H    3.315574   2.855778   3.435645   3.127411   2.556609
                   11         12         13         14         15
    11  C    0.000000
    12  C    1.395273   0.000000
    13  C    2.415947   1.393147   0.000000
    14  C    2.792218   2.415948   1.395306   0.000000
    15  C    2.512168   3.805422   4.324349   3.842664   0.000000
    16  C    3.448811   4.643903   5.077864   4.511021   1.541072
    17  H    7.016669   7.709647   7.247921   5.949011   5.285416
    18  H    8.348060   9.314034   9.127189   7.923570   6.120463
    19  H    7.923554   9.127121   9.314004   8.347985   5.474434
    20  H    5.949011   7.247866   7.709625   7.016598   3.594904
    21  H    5.464891   5.859159   5.213377   3.941191   4.499597
    22  H    4.142611   4.625115   4.267026   3.283078   3.435635
    23  H    4.589988   4.798711   3.984581   2.595345   4.096442
    24  H    4.168307   4.853020   4.513076   3.315574   2.855778
    25  H    1.083056   2.138509   3.388181   3.874969   2.711989
    26  H    2.151164   1.082389   2.148768   3.396112   4.662750
    27  H    3.396195   2.148891   1.082427   2.151155   5.406596
    28  H    3.874983   3.388197   2.138545   1.083068   4.729348
    29  H    3.315558   4.513056   4.853052   4.168335   1.111043
    30  H    2.595263   3.984471   4.798617   4.589872   1.112516
    31  H    3.941183   5.213301   5.859138   5.464849   2.168854
    32  H    3.283188   4.267028   4.625119   4.142529   2.209637
                   16         17         18         19         20
    16  C    0.000000
    17  H    4.729403   0.000000
    18  H    5.406669   2.456948   0.000000
    19  H    4.662751   4.277728   2.473534   0.000000
    20  H    2.711976   4.957498   4.277746   2.456908   0.000000
    21  H    4.096398   2.345154   4.649079   5.857420   5.562821
    22  H    2.855878   3.591948   5.420424   5.918964   4.922731
    23  H    4.499660   3.779427   5.901722   6.893925   6.303168
    24  H    3.435588   3.542711   5.065613   5.595844   4.886819
    25  H    3.594887   7.683505   8.769878   8.040367   5.870182
    26  H    5.474433   8.769818  10.337189  10.036867   8.040381
    27  H    6.120410   8.040367  10.036891  10.337149   8.769813
    28  H    5.285378   5.870182   8.040386   8.769813   7.683449
    29  H    2.209507   4.886886   5.595878   5.065552   3.542603
    30  H    2.168813   6.303179   6.893968   5.901732   3.779468
    31  H    1.112559   5.562953   5.857584   4.649141   2.345243
    32  H    1.111149   4.922693   5.918984   5.420373   3.591974
                   21         22         23         24         25
    21  H    0.000000
    22  H    1.760087   0.000000
    23  H    2.253571   2.854458   0.000000
    24  H    2.854489   3.050769   1.760175   0.000000
    25  H    6.303176   4.886886   5.562953   4.922693   0.000000
    26  H    6.893918   5.595843   5.857487   5.918898   2.456964
    27  H    5.901746   5.065552   4.649141   5.420373   4.277728
    28  H    3.779466   3.542603   2.345243   3.591974   4.957498
    29  H    4.458628   3.811987   3.850985   2.285611   3.591948
    30  H    5.605675   4.458679   5.132785   3.850841   2.345209
    31  H    5.132783   3.850985   5.605781   4.458672   3.779427
    32  H    3.850861   2.285611   4.458672   3.811977   3.542711
                   26         27         28         29         30
    26  H    0.000000
    27  H    2.473437   0.000000
    28  H    4.277643   2.456908   0.000000
    29  H    5.420371   5.918964   4.922731   0.000000
    30  H    4.649112   5.857459   5.562846   1.760043   0.000000
    31  H    5.901736   6.893925   6.303168   2.854458   2.253630
    32  H    5.065618   5.595844   4.886819   3.050769   2.854566
                   31         32
    31  H    0.000000
    32  H    1.760175   0.000000
 Stoichiometry    C16H16
 Framework group  C1[X(C16H16)]
 Deg. of freedom    90
 Full point group                 C1      NOp   1
 Largest Abelian subgroup         C1      NOp   1
 Largest concise Abelian subgroup C1      NOp   1
                         Standard orientation:                         
 ---------------------------------------------------------------------
 Center     Atomic      Atomic             Coordinates (Angstroms)
 Number     Number       Type             X           Y           Z
 ---------------------------------------------------------------------
      1          6           0        1.721575    0.709851    0.364074
      2          6           0        1.721599   -0.709774    0.364116
      3          6           0        2.913877   -1.396110    0.067399
      4          6           0        4.088708   -0.696571   -0.210460
      5          6           0        4.088724    0.696576   -0.210455
      6          6           0        2.913814    1.396106    0.067438
      7          6           0        0.464825   -1.514071    0.614603
      8          6           0       -0.464769   -1.514095   -0.614607
      9          6           0       -1.721585   -0.709850   -0.364029
     10          6           0       -1.721609    0.709774   -0.364070
     11          6           0       -2.913865    1.396113   -0.067451
     12          6           0       -4.088696    0.696574    0.210408
     13          6           0       -4.088712   -0.696573    0.210402
     14          6           0       -2.913824   -1.396106   -0.067392
     15          6           0       -0.464835    1.514072   -0.614557
     16          6           0        0.464781    1.514099    0.614554
     17          1           0        2.934753   -2.478745    0.045618
     18          1           0        4.999646   -1.236745   -0.434220
     19          1           0        4.999595    1.236789   -0.434162
     20          1           0        2.934711    2.478753    0.045605
     21          1           0        0.735081   -2.566351    0.854021
     22          1           0       -0.053656   -1.142851    1.524432
     23          1           0       -0.734986   -2.566431   -0.854043
     24          1           0        0.053637   -1.142759   -1.524450
     25          1           0       -2.934763    2.478746   -0.045573
     26          1           0       -4.999640    1.236648    0.434164
     27          1           0       -4.999605   -1.236789    0.434208
     28          1           0       -2.934721   -2.478752   -0.045560
     29          1           0        0.053646    1.142852   -1.524386
     30          1           0       -0.735069    2.566354   -0.854074
     31          1           0        0.734976    2.566432    0.854088
     32          1           0       -0.053647    1.142759    1.524495
 ---------------------------------------------------------------------
 Rotational constants (GHZ):           1.4287922           0.3281229           0.2785770
 Standard basis: 6-31G(d,p) (6D, 7F)
 There are   320 symmetry adapted cartesian basis functions of A   symmetry.
 There are   320 symmetry adapted basis functions of A   symmetry.
   320 basis functions,   560 primitive gaussians,   320 cartesian basis functions
    56 alpha electrons       56 beta electrons
       nuclear repulsion energy      1019.8662890784 Hartrees.
 NAtoms=   32 NActive=   32 NUniq=   32 SFac= 1.00D+00 NAtFMM=   60 NAOKFM=F Big=F
 Integral buffers will be    131072 words long.
 Raffenetti 2 integral format.
 Two-electron integral symmetry is turned on.
 One-electron integrals computed using PRISM.
 NBasis=   320 RedAO= T EigKep=  4.20D-04  NBF=   320
 NBsUse=   320 1.00D-06 EigRej= -1.00D+00 NBFU=   320
 ExpMin= 1.61D-01 ExpMax= 3.05D+03 ExpMxC= 4.57D+02 IAcc=3 IRadAn=         5 AccDes= 0.00D+00
 Harris functional with IExCor=  402 and IRadAn=       5 diagonalized for initial guess.
 HarFok:  IExCor=  402 AccDes= 0.00D+00 IRadAn=         5 IDoV= 1 UseB2=F ITyADJ=14
 ICtDFT=  3500011 ScaDFX=  1.000000  1.000000  1.000000  1.000000
 FoFCou: FMM=F IPFlag=           0 FMFlag=      100000 FMFlg1=           0
         NFxFlg=           0 DoJE=T BraDBF=F KetDBF=T FulRan=T
         wScrn=  0.000000 ICntrl=       500 IOpCl=  0 I1Cent=   200000004 NGrid=           0
         NMat0=    1 NMatS0=      1 NMatT0=    0 NMatD0=    1 NMtDS0=    0 NMtDT0=    0
 Petite list used in FoFCou.
 Requested convergence on RMS density matrix=1.00D-08 within 128 cycles.
 Requested convergence on MAX density matrix=1.00D-06.
 Requested convergence on             energy=1.00D-06.
 No special actions if energy rises.
 Integral accuracy reduced to 1.0D-05 until final iterations.
 Initial convergence to 1.0D-05 achieved.  Increase integral accuracy.
 SCF Done:  E(RB3LYP) =  -619.366845958     A.U. after   13 cycles
            NFock= 13  Conv=0.50D-08     -V/T= 2.0101
 QCSCF skips out because SCF is already converged.

 **********************************************************************

            Population analysis using the SCF Density.

 **********************************************************************

 Orbital symmetries:
       Occupied  (A) (A) (A) (A) (A) (A) (A) (A) (A) (A) (A) (A)
                 (A) (A) (A) (A) (A) (A) (A) (A) (A) (A) (A) (A)
                 (A) (A) (A) (A) (A) (A) (A) (A) (A) (A) (A) (A)
                 (A) (A) (A) (A) (A) (A) (A) (A) (A) (A) (A) (A)
                 (A) (A) (A) (A) (A) (A) (A) (A)
       Virtual   (A) (A) (A) (A) (A) (A) (A) (A) (A) (A) (A) (A)
                 (A) (A) (A) (A) (A) (A) (A) (A) (A) (A) (A) (A)
                 (A) (A) (A) (A) (A) (A) (A) (A) (A) (A) (A) (A)
                 (A) (A) (A) (A) (A) (A) (A) (A) (A) (A) (A) (A)
                 (A) (A) (A) (A) (A) (A) (A) (A) (A) (A) (A) (A)
                 (A) (A) (A) (A) (A) (A) (A) (A) (A) (A) (A) (A)
                 (A) (A) (A) (A) (A) (A) (A) (A) (A) (A) (A) (A)
                 (A) (A) (A) (A) (A) (A) (A) (A) (A) (A) (A) (A)
                 (A) (A) (A) (A) (A) (A) (A) (A) (A) (A) (A) (A)
                 (A) (A) (A) (A) (A) (A) (A) (A) (A) (A) (A) (A)
                 (A) (A) (A) (A) (A) (A) (A) (A) (A) (A) (A) (A)
                 (A) (A) (A) (A) (A) (A) (A) (A) (A) (A) (A) (A)
                 (A) (A) (A) (A) (A) (A) (A) (A) (A) (A) (A) (A)
                 (A) (A) (A) (A) (A) (A) (A) (A) (A) (A) (A) (A)
                 (A) (A) (A) (A) (A) (A) (A) (A) (A) (A) (A) (A)
                 (A) (A) (A) (A) (A) (A) (A) (A) (A) (A) (A) (A)
                 (A) (A) (A) (A) (A) (A) (A) (A) (A) (A) (A) (A)
                 (A) (A) (A) (A) (A) (A) (A) (A) (A) (A) (A) (A)
                 (A) (A) (A) (A) (A) (A) (A) (A) (A) (A) (A) (A)
                 (A) (A) (A) (A) (A) (A) (A) (A) (A) (A) (A) (A)
                 (A) (A) (A) (A) (A) (A) (A) (A) (A) (A) (A) (A)
                 (A) (A) (A) (A) (A) (A) (A) (A) (A) (A) (A) (A)
 The electronic state is 1-A.
 Alpha  occ. eigenvalues --  -10.19090 -10.19090 -10.19044 -10.19044 -10.18888
 Alpha  occ. eigenvalues --  -10.18887 -10.18868 -10.18867 -10.18195 -10.18195
 Alpha  occ. eigenvalues --  -10.18192 -10.18192 -10.18105 -10.18104 -10.18053
 Alpha  occ. eigenvalues --  -10.18052  -0.85964  -0.84542  -0.79317  -0.78717
 Alpha  occ. eigenvalues --   -0.75099  -0.74528  -0.71495  -0.68648  -0.64715
 Alpha  occ. eigenvalues --   -0.62119  -0.59649  -0.58245  -0.56794  -0.54934
 Alpha  occ. eigenvalues --   -0.49932  -0.49698  -0.46990  -0.45818  -0.45309
 Alpha  occ. eigenvalues --   -0.45167  -0.41655  -0.41616  -0.41164  -0.41093
 Alpha  occ. eigenvalues --   -0.40453  -0.39948  -0.37312  -0.36517  -0.35666
 Alpha  occ. eigenvalues --   -0.34840  -0.34689  -0.33731  -0.33263  -0.33081
 Alpha  occ. eigenvalues --   -0.31881  -0.30198  -0.24185  -0.23702  -0.23626
 Alpha  occ. eigenvalues --   -0.22442
 Alpha virt. eigenvalues --   -0.00114   0.00431   0.00507   0.01160   0.08715
 Alpha virt. eigenvalues --    0.09007   0.10236   0.11239   0.11471   0.12795
 Alpha virt. eigenvalues --    0.14019   0.14928   0.15926   0.17776   0.17804
 Alpha virt. eigenvalues --    0.17814   0.18089   0.18489   0.19448   0.19671
 Alpha virt. eigenvalues --    0.21127   0.22048   0.22531   0.25296   0.25333
 Alpha virt. eigenvalues --    0.26913   0.27486   0.29373   0.31384   0.32618
 Alpha virt. eigenvalues --    0.33889   0.34301   0.34903   0.35977   0.36678
 Alpha virt. eigenvalues --    0.39181   0.46975   0.49041   0.49915   0.50939
 Alpha virt. eigenvalues --    0.51613   0.52763   0.54327   0.54450   0.54581
 Alpha virt. eigenvalues --    0.55674   0.55845   0.57513   0.57797   0.58985
 Alpha virt. eigenvalues --    0.59930   0.60938   0.61047   0.61204   0.61380
 Alpha virt. eigenvalues --    0.61967   0.62152   0.63199   0.63675   0.64096
 Alpha virt. eigenvalues --    0.64539   0.66239   0.66244   0.66345   0.67901
 Alpha virt. eigenvalues --    0.71494   0.72748   0.73062   0.73779   0.75280
 Alpha virt. eigenvalues --    0.76494   0.76668   0.79419   0.81186   0.82057
 Alpha virt. eigenvalues --    0.82059   0.82103   0.82249   0.82960   0.83189
 Alpha virt. eigenvalues --    0.85287   0.85849   0.86087   0.86961   0.87488
 Alpha virt. eigenvalues --    0.88333   0.90373   0.92804   0.92875   0.93102
 Alpha virt. eigenvalues --    0.93226   0.95609   0.97168   0.97362   0.99790
 Alpha virt. eigenvalues --    1.01119   1.04371   1.05384   1.05418   1.09912
 Alpha virt. eigenvalues --    1.10599   1.13704   1.14061   1.14893   1.15875
 Alpha virt. eigenvalues --    1.20208   1.20765   1.21586   1.25893   1.26676
 Alpha virt. eigenvalues --    1.28294   1.31419   1.32439   1.35468   1.37099
 Alpha virt. eigenvalues --    1.39773   1.41192   1.41492   1.41948   1.42124
 Alpha virt. eigenvalues --    1.43149   1.43516   1.46585   1.48294   1.50334
 Alpha virt. eigenvalues --    1.52277   1.53487   1.56560   1.63726   1.70990
 Alpha virt. eigenvalues --    1.73903   1.75303   1.75487   1.77713   1.78003
 Alpha virt. eigenvalues --    1.78615   1.79355   1.82397   1.82961   1.84503
 Alpha virt. eigenvalues --    1.86114   1.86150   1.87201   1.87623   1.88668
 Alpha virt. eigenvalues --    1.89571   1.91604   1.91646   1.92486   1.95786
 Alpha virt. eigenvalues --    1.96056   1.97241   1.97537   1.98445   1.98853
 Alpha virt. eigenvalues --    1.99257   2.00703   2.01398   2.03183   2.07673
 Alpha virt. eigenvalues --    2.08734   2.10788   2.13348   2.14711   2.16153
 Alpha virt. eigenvalues --    2.16950   2.21727   2.22828   2.23941   2.23947
 Alpha virt. eigenvalues --    2.25678   2.26795   2.26845   2.28998   2.29992
 Alpha virt. eigenvalues --    2.30997   2.32106   2.33810   2.34266   2.35520
 Alpha virt. eigenvalues --    2.36285   2.38139   2.38537   2.39587   2.39862
 Alpha virt. eigenvalues --    2.42210   2.43603   2.43887   2.45003   2.45033
 Alpha virt. eigenvalues --    2.45386   2.46382   2.48602   2.49012   2.53423
 Alpha virt. eigenvalues --    2.54330   2.54497   2.55857   2.57621   2.58241
 Alpha virt. eigenvalues --    2.58322   2.58693   2.60541   2.62628   2.64204
 Alpha virt. eigenvalues --    2.66136   2.66948   2.68408   2.68443   2.68673
 Alpha virt. eigenvalues --    2.72415   2.72673   2.74376   2.75989   2.77396
 Alpha virt. eigenvalues --    2.77673   2.77674   2.78953   2.85876   2.85956
 Alpha virt. eigenvalues --    2.86511   2.88159   2.91495   2.97128   3.04901
 Alpha virt. eigenvalues --    3.05068   3.08844   3.10700   3.20796   3.21806
 Alpha virt. eigenvalues --    3.24732   3.25234   3.25743   3.26139   3.28297
 Alpha virt. eigenvalues --    3.29555   3.33560   3.35138   3.38253   3.38384
 Alpha virt. eigenvalues --    3.40399   3.46814   3.48061   3.48332   3.49563
 Alpha virt. eigenvalues --    3.55019   3.85503   3.85960   4.13729   4.14336
 Alpha virt. eigenvalues --    4.17344   4.17767   4.18988   4.19965   4.35464
 Alpha virt. eigenvalues --    4.40681   4.44556   4.48702   4.51991   4.59697
 Alpha virt. eigenvalues --    4.62058   4.82794   4.86993   4.92804
          Condensed to atoms (all electrons):
               1          2          3          4          5          6
     1  C    4.798484   0.529963  -0.020195  -0.040473  -0.028972   0.515701
     2  C    0.529963   4.798567   0.515675  -0.028964  -0.040478  -0.020183
     3  C   -0.020195   0.515675   4.930765   0.514988  -0.031123  -0.057731
     4  C   -0.040473  -0.028964   0.514988   4.828995   0.550417  -0.031110
     5  C   -0.028972  -0.040478  -0.031123   0.550417   4.829024   0.514968
     6  C    0.515701  -0.020183  -0.057731  -0.031110   0.514968   4.930786
     7  C   -0.064198   0.354032  -0.062578   0.007251  -0.000065   0.008052
     8  C   -0.003255  -0.042494  -0.002666  -0.000163   0.000047  -0.000019
     9  C    0.001690   0.000187   0.000321  -0.000000   0.000003  -0.000083
    10  C    0.000187   0.001690  -0.000083   0.000003  -0.000000   0.000321
    11  C    0.000321  -0.000083  -0.000001   0.000000  -0.000000   0.000003
    12  C   -0.000000   0.000003   0.000000  -0.000000   0.000000  -0.000000
    13  C    0.000003  -0.000000  -0.000000   0.000000  -0.000000   0.000000
    14  C   -0.000083   0.000321   0.000003  -0.000000   0.000000  -0.000001
    15  C   -0.042491  -0.003255  -0.000019   0.000047  -0.000163  -0.002665
    16  C    0.354032  -0.064201   0.008051  -0.000066   0.007251  -0.062584
    17  H    0.004805  -0.040159   0.363463  -0.044187   0.004815   0.000671
    18  H    0.001046   0.004023  -0.038004   0.363822  -0.041851   0.004602
    19  H    0.004023   0.001046   0.004602  -0.041851   0.363832  -0.038003
    20  H   -0.040161   0.004807   0.000671   0.004815  -0.044188   0.363455
    21  H    0.004892  -0.028096  -0.008456   0.000280   0.000004  -0.000165
    22  H   -0.006824  -0.026568   0.003089  -0.000247   0.000028  -0.000099
    23  H   -0.000078   0.003264   0.000373   0.000005  -0.000001   0.000005
    24  H    0.000596  -0.002160   0.002000  -0.000149  -0.000000  -0.000312
    25  H    0.000001  -0.000000  -0.000000  -0.000000  -0.000000   0.000000
    26  H    0.000000  -0.000000  -0.000000   0.000000  -0.000000   0.000000
    27  H   -0.000000   0.000000   0.000000  -0.000000   0.000000  -0.000000
    28  H   -0.000000   0.000001   0.000000  -0.000000  -0.000000  -0.000000
    29  H   -0.002161   0.000596  -0.000312  -0.000000  -0.000149   0.002001
    30  H    0.003263  -0.000078   0.000005  -0.000001   0.000005   0.000373
    31  H   -0.028098   0.004891  -0.000164   0.000004   0.000280  -0.008453
    32  H   -0.026577  -0.006824  -0.000099   0.000028  -0.000247   0.003088
               7          8          9         10         11         12
     1  C   -0.064198  -0.003255   0.001690   0.000187   0.000321  -0.000000
     2  C    0.354032  -0.042494   0.000187   0.001690  -0.000083   0.000003
     3  C   -0.062578  -0.002666   0.000321  -0.000083  -0.000001   0.000000
     4  C    0.007251  -0.000163  -0.000000   0.000003   0.000000  -0.000000
     5  C   -0.000065   0.000047   0.000003  -0.000000  -0.000000   0.000000
     6  C    0.008052  -0.000019  -0.000083   0.000321   0.000003  -0.000000
     7  C    5.098179   0.322136  -0.042494  -0.003256  -0.000019   0.000047
     8  C    0.322136   5.098193   0.354030  -0.064197   0.008051  -0.000066
     9  C   -0.042494   0.354030   4.798498   0.529964  -0.020195  -0.040476
    10  C   -0.003256  -0.064197   0.529964   4.798545   0.515683  -0.028964
    11  C   -0.000019   0.008051  -0.020195   0.515683   4.930762   0.514985
    12  C    0.000047  -0.000066  -0.040476  -0.028964   0.514985   4.828991
    13  C   -0.000163   0.007251  -0.028973  -0.040481  -0.031120   0.550423
    14  C   -0.002665  -0.062583   0.515699  -0.020180  -0.057736  -0.031111
    15  C    0.000023  -0.013296  -0.064197   0.354033  -0.062581   0.007252
    16  C   -0.013296   0.000021  -0.003255  -0.042493  -0.002665  -0.000163
    17  H   -0.010554   0.000430   0.000001  -0.000000  -0.000000  -0.000000
    18  H   -0.000196   0.000001   0.000000  -0.000000  -0.000000   0.000000
    19  H    0.000009   0.000000  -0.000000   0.000000   0.000000  -0.000000
    20  H   -0.000153   0.000001  -0.000000   0.000001   0.000000  -0.000000
    21  H    0.362535  -0.032172   0.003263  -0.000078   0.000005  -0.000001
    22  H    0.371827  -0.048010  -0.002160   0.000596  -0.000312  -0.000000
    23  H   -0.032172   0.362533  -0.028097   0.004891  -0.000164   0.000004
    24  H   -0.048003   0.371829  -0.026571  -0.006824  -0.000099   0.000028
    25  H    0.000001  -0.000153   0.004805  -0.040159   0.363466  -0.044188
    26  H    0.000000   0.000009   0.001046   0.004023  -0.038005   0.363826
    27  H    0.000001  -0.000196   0.004023   0.001046   0.004602  -0.041849
    28  H    0.000431  -0.010555  -0.040161   0.004806   0.000671   0.004816
    29  H   -0.000433   0.002025  -0.006823  -0.026569   0.003089  -0.000247
    30  H   -0.000036  -0.000014   0.004891  -0.028097  -0.008454   0.000280
    31  H   -0.000014  -0.000036  -0.000078   0.003264   0.000373   0.000005
    32  H    0.002024  -0.000432   0.000596  -0.002161   0.002000  -0.000149
              13         14         15         16         17         18
     1  C    0.000003  -0.000083  -0.042491   0.354032   0.004805   0.001046
     2  C   -0.000000   0.000321  -0.003255  -0.064201  -0.040159   0.004023
     3  C   -0.000000   0.000003  -0.000019   0.008051   0.363463  -0.038004
     4  C    0.000000  -0.000000   0.000047  -0.000066  -0.044187   0.363822
     5  C   -0.000000   0.000000  -0.000163   0.007251   0.004815  -0.041851
     6  C    0.000000  -0.000001  -0.002665  -0.062584   0.000671   0.004602
     7  C   -0.000163  -0.002665   0.000023  -0.013296  -0.010554  -0.000196
     8  C    0.007251  -0.062583  -0.013296   0.000021   0.000430   0.000001
     9  C   -0.028973   0.515699  -0.064197  -0.003255   0.000001   0.000000
    10  C   -0.040481  -0.020180   0.354033  -0.042493  -0.000000  -0.000000
    11  C   -0.031120  -0.057736  -0.062581  -0.002665  -0.000000  -0.000000
    12  C    0.550423  -0.031111   0.007252  -0.000163  -0.000000   0.000000
    13  C    4.829016   0.514979  -0.000065   0.000047  -0.000000  -0.000000
    14  C    0.514979   4.930771   0.008053  -0.000019   0.000000   0.000000
    15  C   -0.000065   0.008053   5.098178   0.322137   0.000001   0.000000
    16  C    0.000047  -0.000019   0.322137   5.098217  -0.000153   0.000009
    17  H   -0.000000   0.000000   0.000001  -0.000153   0.643374  -0.006166
    18  H   -0.000000   0.000000   0.000000   0.000009  -0.006166   0.640017
    19  H    0.000000  -0.000000   0.000001  -0.000196  -0.000215  -0.006300
    20  H   -0.000000  -0.000000   0.000430  -0.010555   0.000019  -0.000215
    21  H    0.000005   0.000373  -0.000036  -0.000014   0.006482  -0.000013
    22  H   -0.000149   0.002001  -0.000432   0.002026   0.000127   0.000003
    23  H    0.000280  -0.008452  -0.000014  -0.000036  -0.000083  -0.000000
    24  H   -0.000247   0.003088   0.002026  -0.000433   0.000290   0.000003
    25  H    0.004815   0.000671  -0.010554   0.000431   0.000000  -0.000000
    26  H   -0.041855   0.004603  -0.000196   0.000001  -0.000000   0.000000
    27  H    0.363826  -0.038003   0.000009   0.000000   0.000000  -0.000000
    28  H   -0.044188   0.363454  -0.000153   0.000001   0.000000   0.000000
    29  H    0.000028  -0.000099   0.371827  -0.048017   0.000004  -0.000000
    30  H    0.000004  -0.000165   0.362538  -0.032169  -0.000000   0.000000
    31  H   -0.000001   0.000005  -0.032172   0.362531   0.000003  -0.000000
    32  H   -0.000000  -0.000312  -0.048009   0.371818  -0.000003  -0.000000
              19         20         21         22         23         24
     1  C    0.004023  -0.040161   0.004892  -0.006824  -0.000078   0.000596
     2  C    0.001046   0.004807  -0.028096  -0.026568   0.003264  -0.002160
     3  C    0.004602   0.000671  -0.008456   0.003089   0.000373   0.002000
     4  C   -0.041851   0.004815   0.000280  -0.000247   0.000005  -0.000149
     5  C    0.363832  -0.044188   0.000004   0.000028  -0.000001  -0.000000
     6  C   -0.038003   0.363455  -0.000165  -0.000099   0.000005  -0.000312
     7  C    0.000009  -0.000153   0.362535   0.371827  -0.032172  -0.048003
     8  C    0.000000   0.000001  -0.032172  -0.048010   0.362533   0.371829
     9  C   -0.000000  -0.000000   0.003263  -0.002160  -0.028097  -0.026571
    10  C    0.000000   0.000001  -0.000078   0.000596   0.004891  -0.006824
    11  C    0.000000   0.000000   0.000005  -0.000312  -0.000164  -0.000099
    12  C   -0.000000  -0.000000  -0.000001  -0.000000   0.000004   0.000028
    13  C    0.000000  -0.000000   0.000005  -0.000149   0.000280  -0.000247
    14  C   -0.000000  -0.000000   0.000373   0.002001  -0.008452   0.003088
    15  C    0.000001   0.000430  -0.000036  -0.000432  -0.000014   0.002026
    16  C   -0.000196  -0.010555  -0.000014   0.002026  -0.000036  -0.000433
    17  H   -0.000215   0.000019   0.006482   0.000127  -0.000083   0.000290
    18  H   -0.006300  -0.000215  -0.000013   0.000003  -0.000000   0.000003
    19  H    0.640000  -0.006165  -0.000000  -0.000000   0.000000  -0.000000
    20  H   -0.006165   0.643391   0.000003  -0.000003  -0.000000   0.000004
    21  H   -0.000000   0.000003   0.636936  -0.033461  -0.012970   0.003122
    22  H   -0.000000  -0.000003  -0.033461   0.612661   0.003122   0.004438
    23  H    0.000000  -0.000000  -0.012970   0.003122   0.636934  -0.033456
    24  H   -0.000000   0.000004   0.003122   0.004438  -0.033456   0.612649
    25  H    0.000000   0.000000  -0.000000   0.000004   0.000003  -0.000003
    26  H   -0.000000   0.000000   0.000000  -0.000000  -0.000000  -0.000000
    27  H    0.000000  -0.000000  -0.000000   0.000003  -0.000013   0.000003
    28  H   -0.000000   0.000000  -0.000083   0.000290   0.006482   0.000127
    29  H    0.000003   0.000290   0.000025   0.000027   0.000021   0.004053
    30  H   -0.000000  -0.000083   0.000001   0.000025  -0.000001   0.000021
    31  H   -0.000013   0.006482  -0.000001   0.000021   0.000001   0.000025
    32  H    0.000003   0.000127   0.000021   0.004053   0.000025   0.000027
              25         26         27         28         29         30
     1  C    0.000001   0.000000  -0.000000  -0.000000  -0.002161   0.003263
     2  C   -0.000000  -0.000000   0.000000   0.000001   0.000596  -0.000078
     3  C   -0.000000  -0.000000   0.000000   0.000000  -0.000312   0.000005
     4  C   -0.000000   0.000000  -0.000000  -0.000000  -0.000000  -0.000001
     5  C   -0.000000  -0.000000   0.000000  -0.000000  -0.000149   0.000005
     6  C    0.000000   0.000000  -0.000000  -0.000000   0.002001   0.000373
     7  C    0.000001   0.000000   0.000001   0.000431  -0.000433  -0.000036
     8  C   -0.000153   0.000009  -0.000196  -0.010555   0.002025  -0.000014
     9  C    0.004805   0.001046   0.004023  -0.040161  -0.006823   0.004891
    10  C   -0.040159   0.004023   0.001046   0.004806  -0.026569  -0.028097
    11  C    0.363466  -0.038005   0.004602   0.000671   0.003089  -0.008454
    12  C   -0.044188   0.363826  -0.041849   0.004816  -0.000247   0.000280
    13  C    0.004815  -0.041855   0.363826  -0.044188   0.000028   0.000004
    14  C    0.000671   0.004603  -0.038003   0.363454  -0.000099  -0.000165
    15  C   -0.010554  -0.000196   0.000009  -0.000153   0.371827   0.362538
    16  C    0.000431   0.000001   0.000000   0.000001  -0.048017  -0.032169
    17  H    0.000000  -0.000000   0.000000   0.000000   0.000004  -0.000000
    18  H   -0.000000   0.000000  -0.000000   0.000000  -0.000000   0.000000
    19  H    0.000000  -0.000000   0.000000  -0.000000   0.000003  -0.000000
    20  H    0.000000   0.000000  -0.000000   0.000000   0.000290  -0.000083
    21  H   -0.000000   0.000000  -0.000000  -0.000083   0.000025   0.000001
    22  H    0.000004  -0.000000   0.000003   0.000290   0.000027   0.000025
    23  H    0.000003  -0.000000  -0.000013   0.006482   0.000021  -0.000001
    24  H   -0.000003  -0.000000   0.000003   0.000127   0.004053   0.000021
    25  H    0.643372  -0.006166  -0.000215   0.000019   0.000127   0.006480
    26  H   -0.006166   0.640018  -0.006301  -0.000215   0.000003  -0.000013
    27  H   -0.000215  -0.006301   0.640009  -0.006166  -0.000000  -0.000000
    28  H    0.000019  -0.000215  -0.006166   0.643394  -0.000003   0.000003
    29  H    0.000127   0.000003  -0.000000  -0.000003   0.612676  -0.033465
    30  H    0.006480  -0.000013  -0.000000   0.000003  -0.033465   0.636936
    31  H   -0.000083  -0.000000   0.000000  -0.000000   0.003123  -0.012971
    32  H    0.000290   0.000003  -0.000000   0.000004   0.004439   0.003122
              31         32
     1  C   -0.028098  -0.026577
     2  C    0.004891  -0.006824
     3  C   -0.000164  -0.000099
     4  C    0.000004   0.000028
     5  C    0.000280  -0.000247
     6  C   -0.008453   0.003088
     7  C   -0.000014   0.002024
     8  C   -0.000036  -0.000432
     9  C   -0.000078   0.000596
    10  C    0.003264  -0.002161
    11  C    0.000373   0.002000
    12  C    0.000005  -0.000149
    13  C   -0.000001  -0.000000
    14  C    0.000005  -0.000312
    15  C   -0.032172  -0.048009
    16  C    0.362531   0.371818
    17  H    0.000003  -0.000003
    18  H   -0.000000  -0.000000
    19  H   -0.000013   0.000003
    20  H    0.006482   0.000127
    21  H   -0.000001   0.000021
    22  H    0.000021   0.004053
    23  H    0.000001   0.000025
    24  H    0.000025   0.000027
    25  H   -0.000083   0.000290
    26  H   -0.000000   0.000003
    27  H    0.000000  -0.000000
    28  H   -0.000000   0.000004
    29  H    0.003123   0.004439
    30  H   -0.012971   0.003122
    31  H    0.636942  -0.033458
    32  H   -0.033458   0.612695
 Mulliken charges:
               1
     1  C    0.084560
     2  C    0.084479
     3  C   -0.122575
     4  C   -0.083443
     5  C   -0.083435
     6  C   -0.122615
     7  C   -0.246257
     8  C   -0.246252
     9  C    0.084545
    10  C    0.084491
    11  C   -0.122578
    12  C   -0.083443
    13  C   -0.083433
    14  C   -0.122612
    15  C   -0.246255
    16  C   -0.246259
    17  H    0.077034
    18  H    0.079220
    19  H    0.079224
    20  H    0.077028
    21  H    0.097599
    22  H    0.113925
    23  H    0.097595
    24  H    0.113928
    25  H    0.077037
    26  H    0.079217
    27  H    0.079221
    28  H    0.077027
    29  H    0.113922
    30  H    0.097600
    31  H    0.097594
    32  H    0.113909
 Sum of Mulliken charges =  -0.00000
 Mulliken charges with hydrogens summed into heavy atoms:
               1
     1  C    0.084560
     2  C    0.084479
     3  C   -0.045541
     4  C   -0.004223
     5  C   -0.004211
     6  C   -0.045588
     7  C   -0.034733
     8  C   -0.034728
     9  C    0.084545
    10  C    0.084491
    11  C   -0.045541
    12  C   -0.004226
    13  C   -0.004211
    14  C   -0.045585
    15  C   -0.034734
    16  C   -0.034756
 Electronic spatial extent (au):  <R**2>=           3890.7088
 Charge=             -0.0000 electrons
 Dipole moment (field-independent basis, Debye):
    X=             -0.0000    Y=             -0.0000    Z=              0.0000  Tot=              0.0000
 Quadrupole moment (field-independent basis, Debye-Ang):
   XX=            -91.7618   YY=            -85.9027   ZZ=            -98.0260
   XY=             -0.0000   XZ=             -3.1315   YZ=             -0.0003
 Traceless Quadrupole moment (field-independent basis, Debye-Ang):
   XX=              0.1350   YY=              5.9942   ZZ=             -6.1292
   XY=             -0.0000   XZ=             -3.1315   YZ=             -0.0003
 Octapole moment (field-independent basis, Debye-Ang**2):
  XXX=             -0.0000  YYY=             -0.0004  ZZZ=             -0.0001  XYY=              0.0004
  XXY=              0.0001  XXZ=              0.0013  XZZ=             -0.0006  YZZ=              0.0001
  YYZ=              0.0001  XYZ=              0.0002
 Hexadecapole moment (field-independent basis, Debye-Ang**3):
 XXXX=          -3893.7768 YYYY=           -951.4260 ZZZZ=           -229.3207 XXXY=              0.0080
 XXXZ=            -94.1783 YYYX=             -0.0031 YYYZ=             -0.0015 ZZZX=             -1.8796
 ZZZY=             -0.0013 XXYY=           -798.8356 XXZZ=           -795.7308 YYZZ=           -215.6961
 XXYZ=             -0.0021 YYXZ=             -4.3428 ZZXY=             -0.0001
 N-N= 1.019866289078D+03 E-N=-3.472934977273D+03  KE= 6.131783300666D+02
 Calling FoFJK, ICntrl=      2127 FMM=F ISym2X=0 I1Cent= 0 IOpClX= 0 NMat=1 NMatS=1 NMatT=0.
 ***** Axes restored to original set *****
 -------------------------------------------------------------------
 Center     Atomic                   Forces (Hartrees/Bohr)
 Number     Number              X              Y              Z
 -------------------------------------------------------------------
      1        6          -0.007657347   -0.001280560    0.000216322
      2        6          -0.007787435    0.000233619    0.000228401
      3        6           0.000632177   -0.011278855    0.000396227
      4        6           0.001525155   -0.000420818   -0.000050882
      5        6           0.001531286    0.000624674    0.000019673
      6        6          -0.001031833    0.011186259    0.000903491
      7        6          -0.013564177    0.005156916    0.009897275
      8        6           0.012689247    0.007493449   -0.009577074
      9        6           0.007645560    0.001285391   -0.000234095
     10        6           0.007767696   -0.000227742   -0.000246857
     11        6          -0.000607053    0.011268414   -0.000368258
     12        6          -0.001539872    0.000443643    0.000039293
     13        6          -0.001495444   -0.000620796    0.000014305
     14        6           0.001008882   -0.011173139   -0.000922489
     15        6           0.013572348   -0.005161898   -0.009929980
     16        6          -0.012681295   -0.007494494    0.009672863
     17        1           0.001989821    0.002678130    0.002026901
     18        1          -0.002267861    0.001514289   -0.000822769
     19        1          -0.002061452   -0.001784599   -0.000918978
     20        1           0.002349137   -0.002466209    0.001899379
     21        1           0.000540103   -0.010675891   -0.002795888
     22        1           0.001067485    0.002617188   -0.010188346
     23        1           0.000958143   -0.010800407    0.002258228
     24        1          -0.001386868    0.001940008    0.010311129
     25        1          -0.001992196   -0.002678660   -0.002033267
     26        1           0.002289838   -0.001536691    0.000831403
     27        1           0.002043828    0.001770102    0.000904035
     28        1          -0.002349628    0.002466359   -0.001898584
     29        1          -0.001065429   -0.002612649    0.010185775
     30        1          -0.000542150    0.010683447    0.002806538
     31        1          -0.000957367    0.010805229   -0.002268310
     32        1           0.001376702   -0.001953709   -0.010355460
 -------------------------------------------------------------------
 Cartesian Forces:  Max     0.013572348 RMS     0.005618606

 GradGradGradGradGradGradGradGradGradGradGradGradGradGradGradGradGradGrad
 Berny optimization.
 FormGI is forming the generalized inverse of G from B-inverse, IUseBI=4.
 Internal  Forces:  Max     0.013476726 RMS     0.003733401
 Search for a local minimum.
 Step number   1 out of a maximum of  192
 All quantities printed in internal units (Hartrees-Bohrs-Radians)
 Mixed Optimization -- RFO/linear search
 Second derivative matrix not updated -- first step.
 ITU=  0
     Eigenvalues ---    0.00798   0.00884   0.00933   0.00982   0.01273
     Eigenvalues ---    0.01321   0.01528   0.01540   0.01932   0.02059
     Eigenvalues ---    0.02061   0.02065   0.02066   0.02070   0.02071
     Eigenvalues ---    0.02151   0.02151   0.02161   0.02161   0.02168
     Eigenvalues ---    0.02168   0.03456   0.04545   0.04840   0.05157
     Eigenvalues ---    0.05182   0.05352   0.06647   0.06696   0.07902
     Eigenvalues ---    0.09025   0.09285   0.09319   0.09336   0.09380
     Eigenvalues ---    0.10082   0.12903   0.13182   0.15999   0.15999
     Eigenvalues ---    0.16000   0.16000   0.16000   0.16000   0.16000
     Eigenvalues ---    0.16000   0.16733   0.21999   0.21999   0.22046
     Eigenvalues ---    0.22617   0.22641   0.22827   0.24454   0.24606
     Eigenvalues ---    0.24962   0.26755   0.28421   0.29616   0.30708
     Eigenvalues ---    0.31052   0.31053   0.32331   0.32332   0.32335
     Eigenvalues ---    0.32337   0.32479   0.32488   0.32490   0.32490
     Eigenvalues ---    0.35626   0.35626   0.35628   0.35628   0.35702
     Eigenvalues ---    0.35703   0.35707   0.35707   0.38470   0.40092
     Eigenvalues ---    0.41120   0.41168   0.43798   0.43854   0.45506
     Eigenvalues ---    0.45540   0.45614   0.45618   0.46553   0.46555
 RFO step:  Lambda=-1.06674906D-02 EMin= 7.98348008D-03
 Linear search not attempted -- first point.
 Maximum step size (   0.050) exceeded in Quadratic search.
    -- Step size scaled by   0.244
 Iteration  1 RMS(Cart)=  0.01087630 RMS(Int)=  0.00003178
 Iteration  2 RMS(Cart)=  0.00004511 RMS(Int)=  0.00001239
 Iteration  3 RMS(Cart)=  0.00000000 RMS(Int)=  0.00001239
 Variable       Old X    -DE/DX   Delta X   Delta X   Delta X     New X
                                 (Linear)    (Quad)   (Total)
    R1        2.68270  -0.00767   0.00000  -0.00452  -0.00452   2.67818
    R2        2.65933  -0.00475   0.00000  -0.00265  -0.00265   2.65668
    R3        2.85910   0.00316   0.00000   0.00240   0.00240   2.86151
    R4        2.65950  -0.00482   0.00000  -0.00269  -0.00269   2.65681
    R5        2.85912   0.00315   0.00000   0.00240   0.00240   2.86152
    R6        2.63668  -0.00034   0.00000  -0.00008  -0.00007   2.63661
    R7        2.04668   0.00250   0.00000   0.00167   0.00167   2.04835
    R8        2.63267  -0.00126   0.00000  -0.00045  -0.00044   2.63222
    R9        2.04550   0.00283   0.00000   0.00188   0.00188   2.04738
   R10        2.63681  -0.00040   0.00000  -0.00010  -0.00010   2.63671
   R11        2.04541   0.00286   0.00000   0.00190   0.00190   2.04731
   R12        2.04670   0.00250   0.00000   0.00166   0.00166   2.04837
   R13        2.91233   0.01345   0.00000   0.01115   0.01115   2.92348
   R14        2.10232  -0.01051   0.00000  -0.00769  -0.00769   2.09463
   R15        2.09957  -0.00966   0.00000  -0.00703  -0.00703   2.09253
   R16        2.85917   0.00314   0.00000   0.00239   0.00239   2.86156
   R17        2.10241  -0.01054   0.00000  -0.00771  -0.00771   2.09470
   R18        2.09960  -0.00967   0.00000  -0.00704  -0.00704   2.09256
   R19        2.68270  -0.00767   0.00000  -0.00452  -0.00452   2.67818
   R20        2.65933  -0.00475   0.00000  -0.00265  -0.00265   2.65668
   R21        2.65943  -0.00479   0.00000  -0.00267  -0.00268   2.65675
   R22        2.85912   0.00315   0.00000   0.00240   0.00240   2.86152
   R23        2.63668  -0.00034   0.00000  -0.00007  -0.00007   2.63661
   R24        2.04668   0.00250   0.00000   0.00167   0.00167   2.04835
   R25        2.63267  -0.00126   0.00000  -0.00045  -0.00044   2.63222
   R26        2.04542   0.00286   0.00000   0.00190   0.00190   2.04732
   R27        2.63675  -0.00037   0.00000  -0.00009  -0.00009   2.63666
   R28        2.04549   0.00283   0.00000   0.00188   0.00188   2.04737
   R29        2.04670   0.00250   0.00000   0.00166   0.00166   2.04837
   R30        2.91220   0.01348   0.00000   0.01117   0.01117   2.92337
   R31        2.09957  -0.00965   0.00000  -0.00703  -0.00703   2.09254
   R32        2.10235  -0.01052   0.00000  -0.00770  -0.00770   2.09466
   R33        2.10243  -0.01054   0.00000  -0.00771  -0.00771   2.09472
   R34        2.09977  -0.00971   0.00000  -0.00708  -0.00708   2.09269
    A1        2.08019  -0.00063   0.00000  -0.00114  -0.00114   2.07905
    A2        2.13126  -0.00253   0.00000  -0.00201  -0.00203   2.12923
    A3        2.07081   0.00314   0.00000   0.00326   0.00327   2.07408
    A4        2.08024  -0.00065   0.00000  -0.00115  -0.00115   2.07908
    A5        2.13127  -0.00252   0.00000  -0.00201  -0.00202   2.12925
    A6        2.07074   0.00315   0.00000   0.00327   0.00328   2.07402
    A7        2.10693   0.00365   0.00000   0.00380   0.00379   2.11072
    A8        2.10373  -0.00477   0.00000  -0.00611  -0.00611   2.09762
    A9        2.07252   0.00112   0.00000   0.00232   0.00232   2.07484
   A10        2.09598  -0.00300   0.00000  -0.00261  -0.00261   2.09337
   A11        2.09390   0.00122   0.00000   0.00092   0.00092   2.09482
   A12        2.09327   0.00178   0.00000   0.00172   0.00172   2.09499
   A13        2.09592  -0.00300   0.00000  -0.00261  -0.00261   2.09332
   A14        2.09336   0.00177   0.00000   0.00171   0.00171   2.09507
   A15        2.09387   0.00123   0.00000   0.00092   0.00092   2.09479
   A16        2.10699   0.00363   0.00000   0.00378   0.00378   2.11078
   A17        2.10373  -0.00476   0.00000  -0.00610  -0.00610   2.09762
   A18        2.07245   0.00113   0.00000   0.00233   0.00233   2.07478
   A19        1.94873   0.00779   0.00000   0.01138   0.01136   1.96010
   A20        1.91417  -0.00558   0.00000  -0.00694  -0.00697   1.90720
   A21        1.92367   0.00071   0.00000   0.00044   0.00048   1.92415
   A22        1.89459   0.00223   0.00000   0.00373   0.00374   1.89833
   A23        1.95161  -0.00782   0.00000  -0.01182  -0.01181   1.93980
   A24        1.82675   0.00219   0.00000   0.00254   0.00255   1.82929
   A25        1.94867   0.00780   0.00000   0.01139   0.01138   1.96005
   A26        1.89460   0.00223   0.00000   0.00372   0.00374   1.89834
   A27        1.95164  -0.00783   0.00000  -0.01182  -0.01181   1.93983
   A28        1.91418  -0.00558   0.00000  -0.00695  -0.00698   1.90720
   A29        1.92362   0.00071   0.00000   0.00045   0.00049   1.92411
   A30        1.82680   0.00219   0.00000   0.00253   0.00254   1.82934
   A31        2.13124  -0.00253   0.00000  -0.00201  -0.00202   2.12922
   A32        2.07082   0.00314   0.00000   0.00326   0.00327   2.07409
   A33        2.08019  -0.00063   0.00000  -0.00114  -0.00114   2.07905
   A34        2.08025  -0.00065   0.00000  -0.00116  -0.00116   2.07910
   A35        2.13127  -0.00253   0.00000  -0.00201  -0.00202   2.12925
   A36        2.07072   0.00315   0.00000   0.00327   0.00329   2.07401
   A37        2.10691   0.00365   0.00000   0.00380   0.00380   2.11071
   A38        2.10379  -0.00477   0.00000  -0.00612  -0.00612   2.09767
   A39        2.07247   0.00112   0.00000   0.00233   0.00233   2.07480
   A40        2.09598  -0.00300   0.00000  -0.00262  -0.00262   2.09336
   A41        2.09398   0.00121   0.00000   0.00091   0.00090   2.09489
   A42        2.09319   0.00179   0.00000   0.00173   0.00173   2.09492
   A43        2.09594  -0.00300   0.00000  -0.00261  -0.00261   2.09333
   A44        2.09334   0.00177   0.00000   0.00171   0.00171   2.09505
   A45        2.09387   0.00123   0.00000   0.00093   0.00092   2.09479
   A46        2.10698   0.00364   0.00000   0.00379   0.00378   2.11076
   A47        2.10373  -0.00476   0.00000  -0.00610  -0.00610   2.09762
   A48        2.07247   0.00112   0.00000   0.00232   0.00233   2.07479
   A49        1.94877   0.00779   0.00000   0.01137   0.01136   1.96013
   A50        1.92367   0.00071   0.00000   0.00044   0.00048   1.92415
   A51        1.91419  -0.00558   0.00000  -0.00695  -0.00698   1.90722
   A52        1.95156  -0.00782   0.00000  -0.01181  -0.01180   1.93976
   A53        1.89465   0.00223   0.00000   0.00372   0.00373   1.89838
   A54        1.82666   0.00220   0.00000   0.00256   0.00256   1.82922
   A55        1.94877   0.00779   0.00000   0.01137   0.01136   1.96013
   A56        1.91420  -0.00558   0.00000  -0.00695  -0.00698   1.90723
   A57        1.92357   0.00071   0.00000   0.00046   0.00050   1.92406
   A58        1.89466   0.00223   0.00000   0.00372   0.00373   1.89839
   A59        1.95163  -0.00782   0.00000  -0.01182  -0.01181   1.93982
   A60        1.82668   0.00219   0.00000   0.00255   0.00255   1.82923
    D1       -0.00009   0.00000   0.00000   0.00002   0.00002  -0.00007
    D2       -3.09447   0.00051   0.00000  -0.00283  -0.00282  -3.09729
    D3        3.09441  -0.00051   0.00000   0.00284   0.00284   3.09724
    D4        0.00003  -0.00000   0.00000  -0.00001  -0.00001   0.00003
    D5       -0.01164   0.00009   0.00000   0.00302   0.00302  -0.00862
    D6        3.12433   0.00027   0.00000   0.00439   0.00439   3.12871
    D7       -3.10778   0.00074   0.00000   0.00043   0.00043  -3.10735
    D8        0.02819   0.00092   0.00000   0.00180   0.00180   0.02998
    D9       -1.31897   0.00440   0.00000   0.00739   0.00738  -1.31159
   D10        2.86333   0.00030   0.00000   0.00002   0.00003   2.86336
   D11        0.86120   0.00043   0.00000   0.00065   0.00065   0.86185
   D12        1.77577   0.00379   0.00000   0.01008   0.01007   1.78585
   D13       -0.32512  -0.00031   0.00000   0.00271   0.00273  -0.32239
   D14       -2.32725  -0.00018   0.00000   0.00335   0.00335  -2.32390
   D15        0.01178  -0.00009   0.00000  -0.00304  -0.00304   0.00874
   D16       -3.12430  -0.00027   0.00000  -0.00439  -0.00439  -3.12869
   D17        3.10780  -0.00074   0.00000  -0.00043  -0.00043   3.10737
   D18       -0.02828  -0.00092   0.00000  -0.00178  -0.00178  -0.03006
   D19        1.31895  -0.00440   0.00000  -0.00738  -0.00738   1.31157
   D20       -2.86349  -0.00029   0.00000   0.00001  -0.00001  -2.86350
   D21       -0.86124  -0.00043   0.00000  -0.00063  -0.00064  -0.86189
   D22       -1.77568  -0.00379   0.00000  -0.01010  -0.01009  -1.78577
   D23        0.32507   0.00031   0.00000  -0.00271  -0.00273   0.32234
   D24        2.32732   0.00018   0.00000  -0.00336  -0.00336   2.32396
   D25       -0.01184   0.00011   0.00000   0.00307   0.00307  -0.00877
   D26        3.13837  -0.00012   0.00000  -0.00023  -0.00023   3.13814
   D27        3.12434   0.00027   0.00000   0.00437   0.00438   3.12871
   D28       -0.00863   0.00003   0.00000   0.00107   0.00107  -0.00756
   D29        0.00000  -0.00000   0.00000  -0.00000  -0.00000   0.00000
   D30       -3.13300  -0.00023   0.00000  -0.00329  -0.00330  -3.13630
   D31        3.13298   0.00023   0.00000   0.00330   0.00330   3.13628
   D32       -0.00003   0.00000   0.00000   0.00000   0.00000  -0.00003
   D33        0.01179  -0.00011   0.00000  -0.00306  -0.00306   0.00873
   D34       -3.12428  -0.00027   0.00000  -0.00438  -0.00438  -3.12866
   D35       -3.13839   0.00012   0.00000   0.00024   0.00024  -3.13815
   D36        0.00873  -0.00003   0.00000  -0.00108  -0.00109   0.00764
   D37       -1.92387  -0.00130   0.00000   0.00184   0.00190  -1.92198
   D38        2.24715  -0.00074   0.00000   0.00085   0.00086   2.24801
   D39        0.24060  -0.00037   0.00000   0.00213   0.00214   0.24274
   D40        2.24713  -0.00074   0.00000   0.00085   0.00086   2.24799
   D41        0.13497  -0.00017   0.00000  -0.00015  -0.00017   0.13479
   D42       -1.87158   0.00019   0.00000   0.00114   0.00111  -1.87047
   D43        0.24068  -0.00038   0.00000   0.00211   0.00213   0.24280
   D44       -1.87149   0.00018   0.00000   0.00112   0.00109  -1.87040
   D45        2.40515   0.00054   0.00000   0.00240   0.00238   2.40753
   D46        1.31905  -0.00440   0.00000  -0.00740  -0.00739   1.31166
   D47       -1.77576  -0.00379   0.00000  -0.01009  -0.01007  -1.78584
   D48       -2.86340  -0.00029   0.00000  -0.00001  -0.00002  -2.86343
   D49        0.32497   0.00032   0.00000  -0.00269  -0.00271   0.32226
   D50       -0.86111  -0.00043   0.00000  -0.00066  -0.00067  -0.86178
   D51        2.32726   0.00018   0.00000  -0.00335  -0.00335   2.32391
   D52       -3.09455   0.00052   0.00000  -0.00282  -0.00281  -3.09736
   D53       -0.00010   0.00000   0.00000   0.00002   0.00002  -0.00008
   D54        0.00002   0.00000   0.00000  -0.00000  -0.00000   0.00001
   D55        3.09447  -0.00051   0.00000   0.00283   0.00282   3.09729
   D56        3.10792  -0.00074   0.00000  -0.00045  -0.00045   3.10747
   D57       -0.02812  -0.00092   0.00000  -0.00181  -0.00181  -0.02993
   D58        0.01171  -0.00009   0.00000  -0.00303  -0.00303   0.00868
   D59       -3.12433  -0.00027   0.00000  -0.00439  -0.00439  -3.12871
   D60       -0.01171   0.00009   0.00000   0.00303   0.00303  -0.00868
   D61        3.12420   0.00027   0.00000   0.00441   0.00441   3.12861
   D62       -3.10780   0.00074   0.00000   0.00043   0.00043  -3.10737
   D63        0.02811   0.00092   0.00000   0.00181   0.00181   0.02992
   D64       -1.31892   0.00440   0.00000   0.00738   0.00737  -1.31155
   D65        0.86124   0.00043   0.00000   0.00064   0.00065   0.86189
   D66        2.86340   0.00030   0.00000   0.00001   0.00003   2.86343
   D67        1.77578   0.00379   0.00000   0.01009   0.01008   1.78586
   D68       -2.32725  -0.00018   0.00000   0.00335   0.00335  -2.32389
   D69       -0.32509  -0.00031   0.00000   0.00272   0.00273  -0.32236
   D70        0.01177  -0.00011   0.00000  -0.00306  -0.00305   0.00871
   D71       -3.13844   0.00013   0.00000   0.00025   0.00025  -3.13819
   D72       -3.12424  -0.00027   0.00000  -0.00439  -0.00439  -3.12863
   D73        0.00873  -0.00003   0.00000  -0.00108  -0.00109   0.00765
   D74        0.00007  -0.00000   0.00000  -0.00002  -0.00002   0.00005
   D75        3.13291   0.00023   0.00000   0.00331   0.00331   3.13622
   D76       -3.13291  -0.00023   0.00000  -0.00331  -0.00331  -3.13622
   D77       -0.00007   0.00000   0.00000   0.00001   0.00001  -0.00006
   D78       -0.01186   0.00011   0.00000   0.00308   0.00308  -0.00879
   D79        3.12427   0.00027   0.00000   0.00439   0.00439   3.12866
   D80        3.13848  -0.00013   0.00000  -0.00025  -0.00025   3.13823
   D81       -0.00856   0.00003   0.00000   0.00106   0.00106  -0.00750
   D82        1.92382   0.00130   0.00000  -0.00183  -0.00189   1.92193
   D83       -2.24707   0.00073   0.00000  -0.00086  -0.00087  -2.24794
   D84       -0.24064   0.00038   0.00000  -0.00212  -0.00214  -0.24278
   D85       -0.24073   0.00038   0.00000  -0.00210  -0.00212  -0.24285
   D86        1.87157  -0.00018   0.00000  -0.00113  -0.00110   1.87046
   D87       -2.40519  -0.00054   0.00000  -0.00240  -0.00237  -2.40756
   D88       -2.24709   0.00074   0.00000  -0.00085  -0.00087  -2.24795
   D89       -0.13479   0.00017   0.00000   0.00012   0.00015  -0.13464
   D90        1.87164  -0.00019   0.00000  -0.00115  -0.00112   1.87052
         Item               Value     Threshold  Converged?
 Maximum Force            0.013477     0.000450     NO 
 RMS     Force            0.003733     0.000300     NO 
 Maximum Displacement     0.030403     0.001800     NO 
 RMS     Displacement     0.010866     0.001200     NO 
 Predicted change in Energy=-2.307291D-03
 GradGradGradGradGradGradGradGradGradGradGradGradGradGradGradGradGradGrad

                          Input orientation:                          
 ---------------------------------------------------------------------
 Center     Atomic      Atomic             Coordinates (Angstroms)
[...]
 Alpha virt. eigenvalues --    2.45518   2.46137   2.48426   2.49348   2.53055
 Alpha virt. eigenvalues --    2.54310   2.54606   2.55562   2.57323   2.57657
 Alpha virt. eigenvalues --    2.57867   2.57968   2.61710   2.62144   2.64174
 Alpha virt. eigenvalues --    2.66101   2.68059   2.68899   2.69999   2.70393
 Alpha virt. eigenvalues --    2.74071   2.74748   2.75613   2.75673   2.76030
 Alpha virt. eigenvalues --    2.78310   2.79308   2.80189   2.85893   2.86617
 Alpha virt. eigenvalues --    2.88402   2.90415   2.93205   2.96407   3.05218
 Alpha virt. eigenvalues --    3.05489   3.10960   3.11541   3.21106   3.21673
 Alpha virt. eigenvalues --    3.24291   3.24297   3.28001   3.28057   3.31138
 Alpha virt. eigenvalues --    3.32567   3.34369   3.35376   3.39073   3.39830
 Alpha virt. eigenvalues --    3.42424   3.47637   3.47702   3.48077   3.51929
 Alpha virt. eigenvalues --    3.57120   3.85744   3.86106   4.13495   4.14315
 Alpha virt. eigenvalues --    4.16841   4.17094   4.18220   4.18943   4.34773
 Alpha virt. eigenvalues --    4.38754   4.44066   4.47467   4.51089   4.58880
 Alpha virt. eigenvalues --    4.61561   4.81182   4.87322   4.92220
          Condensed to atoms (all electrons):
               1          2          3          4          5          6
     1  C    4.784831   0.529739  -0.019370  -0.041337  -0.028047   0.517420
     2  C    0.529739   4.784830   0.517420  -0.028047  -0.041337  -0.019370
     3  C   -0.019370   0.517420   4.936238   0.513068  -0.030160  -0.061189
     4  C   -0.041337  -0.028047   0.513068   4.832859   0.547509  -0.030160
     5  C   -0.028047  -0.041337  -0.030160   0.547509   4.832859   0.513068
     6  C    0.517420  -0.019370  -0.061189  -0.030160   0.513068   4.936238
     7  C   -0.065861   0.358938  -0.061541   0.007354  -0.000113   0.008476
     8  C   -0.002904  -0.036380  -0.001645  -0.000135   0.000038  -0.000024
     9  C    0.001267   0.000170   0.000199  -0.000000   0.000002  -0.000072
    10  C    0.000170   0.001267  -0.000072   0.000002  -0.000000   0.000199
    11  C    0.000199  -0.000072  -0.000001   0.000000  -0.000000   0.000003
    12  C   -0.000000   0.000002   0.000000  -0.000000   0.000000  -0.000000
    13  C    0.000002  -0.000000  -0.000000   0.000000  -0.000000   0.000000
    14  C   -0.000072   0.000199   0.000003  -0.000000   0.000000  -0.000001
    15  C   -0.036380  -0.002904  -0.000024   0.000038  -0.000135  -0.001645
    16  C    0.358938  -0.065861   0.008476  -0.000113   0.007354  -0.061541
    17  H    0.005210  -0.039874   0.361000  -0.044326   0.004744   0.000722
    18  H    0.001068   0.003843  -0.036873   0.363994  -0.041331   0.004385
    19  H    0.003843   0.001068   0.004385  -0.041331   0.363994  -0.036874
    20  H   -0.039874   0.005210   0.000722   0.004744  -0.044326   0.361000
    21  H    0.005443  -0.030475  -0.008785   0.000234   0.000003  -0.000197
    22  H   -0.007073  -0.027227   0.002727  -0.000251   0.000035  -0.000111
    23  H   -0.000088   0.002914   0.000208   0.000005  -0.000001   0.000005
    24  H    0.000815  -0.001629   0.001903  -0.000117  -0.000006  -0.000256
    25  H    0.000000  -0.000000   0.000000  -0.000000  -0.000000   0.000000
    26  H    0.000000  -0.000000  -0.000000   0.000000  -0.000000   0.000000
    27  H   -0.000000   0.000000   0.000000  -0.000000   0.000000  -0.000000
    28  H   -0.000000   0.000000   0.000000  -0.000000  -0.000000   0.000000
    29  H   -0.001629   0.000815  -0.000256  -0.000006  -0.000117   0.001903
    30  H    0.002914  -0.000088   0.000005  -0.000001   0.000005   0.000208
    31  H   -0.030475   0.005443  -0.000197   0.000003   0.000234  -0.008785
    32  H   -0.027227  -0.007073  -0.000111   0.000035  -0.000251   0.002727
               7          8          9         10         11         12
     1  C   -0.065861  -0.002904   0.001267   0.000170   0.000199  -0.000000
     2  C    0.358938  -0.036380   0.000170   0.001267  -0.000072   0.000002
     3  C   -0.061541  -0.001645   0.000199  -0.000072  -0.000001   0.000000
     4  C    0.007354  -0.000135  -0.000000   0.000002   0.000000  -0.000000
     5  C   -0.000113   0.000038   0.000002  -0.000000  -0.000000   0.000000
     6  C    0.008476  -0.000024  -0.000072   0.000199   0.000003  -0.000000
     7  C    5.093333   0.319220  -0.036380  -0.002904  -0.000024   0.000038
     8  C    0.319220   5.093333   0.358938  -0.065861   0.008476  -0.000113
     9  C   -0.036380   0.358938   4.784830   0.529739  -0.019370  -0.041337
    10  C   -0.002904  -0.065861   0.529739   4.784831   0.517420  -0.028047
    11  C   -0.000024   0.008476  -0.019370   0.517420   4.936238   0.513068
    12  C    0.000038  -0.000113  -0.041337  -0.028047   0.513068   4.832859
    13  C   -0.000135   0.007354  -0.028047  -0.041337  -0.030160   0.547509
    14  C   -0.001645  -0.061541   0.517420  -0.019370  -0.061189  -0.030160
    15  C    0.000450  -0.013535  -0.065861   0.358938  -0.061541   0.007354
    16  C   -0.013535   0.000450  -0.002904  -0.036380  -0.001645  -0.000135
    17  H   -0.011771   0.000346   0.000000  -0.000000   0.000000  -0.000000
    18  H   -0.000183   0.000001   0.000000  -0.000000  -0.000000   0.000000
    19  H    0.000009   0.000000  -0.000000   0.000000   0.000000  -0.000000
    20  H   -0.000174   0.000001  -0.000000   0.000000   0.000000  -0.000000
    21  H    0.363099  -0.030562   0.002914  -0.000088   0.000005  -0.000001
    22  H    0.370353  -0.049830  -0.001629   0.000815  -0.000256  -0.000006
    23  H   -0.030562   0.363099  -0.030475   0.005443  -0.000197   0.000003
    24  H   -0.049830   0.370352  -0.027227  -0.007073  -0.000111   0.000035
    25  H    0.000001  -0.000174   0.005210  -0.039874   0.361000  -0.044326
    26  H    0.000000   0.000009   0.001068   0.003843  -0.036874   0.363994
    27  H    0.000001  -0.000183   0.003843   0.001068   0.004385  -0.041331
    28  H    0.000346  -0.011771  -0.039874   0.005210   0.000722   0.004744
    29  H   -0.000626   0.001812  -0.007073  -0.027227   0.002727  -0.000251
    30  H   -0.000033   0.000003   0.005443  -0.030475  -0.008785   0.000234
    31  H    0.000003  -0.000033  -0.000088   0.002914   0.000208   0.000005
    32  H    0.001812  -0.000626   0.000815  -0.001629   0.001903  -0.000117
              13         14         15         16         17         18
     1  C    0.000002  -0.000072  -0.036380   0.358938   0.005210   0.001068
     2  C   -0.000000   0.000199  -0.002904  -0.065861  -0.039874   0.003843
     3  C   -0.000000   0.000003  -0.000024   0.008476   0.361000  -0.036873
     4  C    0.000000  -0.000000   0.000038  -0.000113  -0.044326   0.363994
     5  C   -0.000000   0.000000  -0.000135   0.007354   0.004744  -0.041331
     6  C    0.000000  -0.000001  -0.001645  -0.061541   0.000722   0.004385
     7  C   -0.000135  -0.001645   0.000450  -0.013535  -0.011771  -0.000183
     8  C    0.007354  -0.061541  -0.013535   0.000450   0.000346   0.000001
     9  C   -0.028047   0.517420  -0.065861  -0.002904   0.000000   0.000000
    10  C   -0.041337  -0.019370   0.358938  -0.036380  -0.000000  -0.000000
    11  C   -0.030160  -0.061189  -0.061541  -0.001645   0.000000  -0.000000
    12  C    0.547509  -0.030160   0.007354  -0.000135  -0.000000   0.000000
    13  C    4.832859   0.513068  -0.000113   0.000038  -0.000000  -0.000000
    14  C    0.513068   4.936238   0.008476  -0.000024   0.000000   0.000000
    15  C   -0.000113   0.008476   5.093332   0.319220   0.000001   0.000000
    16  C    0.000038  -0.000024   0.319220   5.093332  -0.000174   0.000009
    17  H   -0.000000   0.000000   0.000001  -0.000174   0.646997  -0.006056
    18  H   -0.000000   0.000000   0.000000   0.000009  -0.006056   0.635880
    19  H    0.000000  -0.000000   0.000001  -0.000183  -0.000208  -0.005812
    20  H   -0.000000   0.000000   0.000346  -0.011771   0.000020  -0.000208
    21  H    0.000005   0.000208  -0.000033   0.000003   0.007694  -0.000013
    22  H   -0.000117   0.001903  -0.000626   0.001812   0.000151   0.000003
    23  H    0.000234  -0.008785   0.000003  -0.000033  -0.000077  -0.000000
    24  H   -0.000251   0.002727   0.001812  -0.000626   0.000229   0.000001
    25  H    0.004744   0.000722  -0.011771   0.000346   0.000000  -0.000000
    26  H   -0.041331   0.004385  -0.000183   0.000001  -0.000000   0.000000
    27  H    0.363994  -0.036873   0.000009   0.000000   0.000000  -0.000000
    28  H   -0.044326   0.361000  -0.000174   0.000001   0.000000   0.000000
    29  H    0.000035  -0.000111   0.370353  -0.049830   0.000003  -0.000000
    30  H    0.000003  -0.000197   0.363099  -0.030562  -0.000000   0.000000
    31  H   -0.000001   0.000005  -0.030562   0.363099   0.000003  -0.000000
    32  H   -0.000006  -0.000256  -0.049830   0.370352  -0.000003  -0.000000
              19         20         21         22         23         24
     1  C    0.003843  -0.039874   0.005443  -0.007073  -0.000088   0.000815
     2  C    0.001068   0.005210  -0.030475  -0.027227   0.002914  -0.001629
     3  C    0.004385   0.000722  -0.008785   0.002727   0.000208   0.001903
     4  C   -0.041331   0.004744   0.000234  -0.000251   0.000005  -0.000117
     5  C    0.363994  -0.044326   0.000003   0.000035  -0.000001  -0.000006
     6  C   -0.036874   0.361000  -0.000197  -0.000111   0.000005  -0.000256
     7  C    0.000009  -0.000174   0.363099   0.370353  -0.030562  -0.049830
     8  C    0.000000   0.000001  -0.030562  -0.049830   0.363099   0.370352
     9  C   -0.000000  -0.000000   0.002914  -0.001629  -0.030475  -0.027227
    10  C    0.000000   0.000000  -0.000088   0.000815   0.005443  -0.007073
    11  C    0.000000   0.000000   0.000005  -0.000256  -0.000197  -0.000111
    12  C   -0.000000  -0.000000  -0.000001  -0.000006   0.000003   0.000035
    13  C    0.000000  -0.000000   0.000005  -0.000117   0.000234  -0.000251
    14  C   -0.000000   0.000000   0.000208   0.001903  -0.008785   0.002727
    15  C    0.000001   0.000346  -0.000033  -0.000626   0.000003   0.001812
    16  C   -0.000183  -0.011771   0.000003   0.001812  -0.000033  -0.000626
    17  H   -0.000208   0.000020   0.007694   0.000151  -0.000077   0.000229
    18  H   -0.005812  -0.000208  -0.000013   0.000003  -0.000000   0.000001
    19  H    0.635881  -0.006056  -0.000000  -0.000000   0.000000  -0.000000
    20  H   -0.006056   0.646997   0.000003  -0.000003  -0.000000   0.000003
    21  H   -0.000000   0.000003   0.632495  -0.031879  -0.012138   0.003061
    22  H   -0.000000  -0.000003  -0.031879   0.614298   0.003061   0.005152
    23  H    0.000000  -0.000000  -0.012138   0.003061   0.632495  -0.031879
    24  H   -0.000000   0.000003   0.003061   0.005152  -0.031879   0.614298
    25  H    0.000000   0.000000  -0.000000   0.000003   0.000003  -0.000003
    26  H   -0.000000   0.000000   0.000000  -0.000000  -0.000000  -0.000000
    27  H    0.000000  -0.000000  -0.000000   0.000001  -0.000013   0.000003
    28  H   -0.000000   0.000000  -0.000077   0.000229   0.007694   0.000151
    29  H    0.000001   0.000229   0.000027   0.000081   0.000032   0.004224
    30  H   -0.000000  -0.000077   0.000001   0.000027  -0.000002   0.000032
    31  H   -0.000013   0.007694  -0.000002   0.000032   0.000001   0.000027
    32  H    0.000003   0.000151   0.000032   0.004224   0.000027   0.000081
              25         26         27         28         29         30
     1  C    0.000000   0.000000  -0.000000  -0.000000  -0.001629   0.002914
     2  C   -0.000000  -0.000000   0.000000   0.000000   0.000815  -0.000088
     3  C    0.000000  -0.000000   0.000000   0.000000  -0.000256   0.000005
     4  C   -0.000000   0.000000  -0.000000  -0.000000  -0.000006  -0.000001
     5  C   -0.000000  -0.000000   0.000000  -0.000000  -0.000117   0.000005
     6  C    0.000000   0.000000  -0.000000   0.000000   0.001903   0.000208
     7  C    0.000001   0.000000   0.000001   0.000346  -0.000626  -0.000033
     8  C   -0.000174   0.000009  -0.000183  -0.011771   0.001812   0.000003
     9  C    0.005210   0.001068   0.003843  -0.039874  -0.007073   0.005443
    10  C   -0.039874   0.003843   0.001068   0.005210  -0.027227  -0.030475
    11  C    0.361000  -0.036874   0.004385   0.000722   0.002727  -0.008785
    12  C   -0.044326   0.363994  -0.041331   0.004744  -0.000251   0.000234
    13  C    0.004744  -0.041331   0.363994  -0.044326   0.000035   0.000003
    14  C    0.000722   0.004385  -0.036873   0.361000  -0.000111  -0.000197
    15  C   -0.011771  -0.000183   0.000009  -0.000174   0.370353   0.363099
    16  C    0.000346   0.000001   0.000000   0.000001  -0.049830  -0.030562
    17  H    0.000000  -0.000000   0.000000   0.000000   0.000003  -0.000000
    18  H   -0.000000   0.000000  -0.000000   0.000000  -0.000000   0.000000
    19  H    0.000000  -0.000000   0.000000  -0.000000   0.000001  -0.000000
    20  H    0.000000   0.000000  -0.000000   0.000000   0.000229  -0.000077
    21  H   -0.000000   0.000000  -0.000000  -0.000077   0.000027   0.000001
    22  H    0.000003  -0.000000   0.000001   0.000229   0.000081   0.000027
    23  H    0.000003  -0.000000  -0.000013   0.007694   0.000032  -0.000002
    24  H   -0.000003  -0.000000   0.000003   0.000151   0.004224   0.000032
    25  H    0.646997  -0.006056  -0.000208   0.000020   0.000151   0.007694
    26  H   -0.006056   0.635881  -0.005812  -0.000208   0.000003  -0.000013
    27  H   -0.000208  -0.005812   0.635881  -0.006056  -0.000000  -0.000000
    28  H    0.000020  -0.000208  -0.006056   0.646997  -0.000003   0.000003
    29  H    0.000151   0.000003  -0.000000  -0.000003   0.614298  -0.031879
    30  H    0.007694  -0.000013  -0.000000   0.000003  -0.031879   0.632495
    31  H   -0.000077  -0.000000   0.000000  -0.000000   0.003061  -0.012138
    32  H    0.000229   0.000001  -0.000000   0.000003   0.005152   0.003061
              31         32
     1  C   -0.030475  -0.027227
     2  C    0.005443  -0.007073
     3  C   -0.000197  -0.000111
     4  C    0.000003   0.000035
     5  C    0.000234  -0.000251
     6  C   -0.008785   0.002727
     7  C    0.000003   0.001812
     8  C   -0.000033  -0.000626
     9  C   -0.000088   0.000815
    10  C    0.002914  -0.001629
    11  C    0.000208   0.001903
    12  C    0.000005  -0.000117
    13  C   -0.000001  -0.000006
    14  C    0.000005  -0.000256
    15  C   -0.030562  -0.049830
    16  C    0.363099   0.370352
    17  H    0.000003  -0.000003
    18  H   -0.000000  -0.000000
    19  H   -0.000013   0.000003
    20  H    0.007694   0.000151
    21  H   -0.000002   0.000032
    22  H    0.000032   0.004224
    23  H    0.000001   0.000027
    24  H    0.000027   0.000081
    25  H   -0.000077   0.000229
    26  H   -0.000000   0.000001
    27  H    0.000000  -0.000000
    28  H   -0.000000   0.000003
    29  H    0.003061   0.005152
    30  H   -0.012138   0.003061
    31  H    0.632495  -0.031879
    32  H   -0.031879   0.614298
 Mulliken charges:
               1
     1  C    0.088478
     2  C    0.088479
     3  C   -0.126129
     4  C   -0.084020
     5  C   -0.084020
     6  C   -0.126128
     7  C   -0.248114
     8  C   -0.248114
     9  C    0.088479
    10  C    0.088479
    11  C   -0.126129
    12  C   -0.084020
    13  C   -0.084020
    14  C   -0.126128
    15  C   -0.248114
    16  C   -0.248114
    17  H    0.075369
    18  H    0.081291
    19  H    0.081291
    20  H    0.075369
    21  H    0.099022
    22  H    0.114103
    23  H    0.099022
    24  H    0.114103
    25  H    0.075369
    26  H    0.081291
    27  H    0.081291
    28  H    0.075369
    29  H    0.114103
    30  H    0.099022
    31  H    0.099022
    32  H    0.114103
 Sum of Mulliken charges =  -0.00000
 Mulliken charges with hydrogens summed into heavy atoms:
               1
     1  C    0.088478
     2  C    0.088479
     3  C   -0.050760
     4  C   -0.002729
     5  C   -0.002729
     6  C   -0.050760
     7  C   -0.034989
     8  C   -0.034990
     9  C    0.088479
    10  C    0.088479
    11  C   -0.050760
    12  C   -0.002729
    13  C   -0.002729
    14  C   -0.050760
    15  C   -0.034989
    16  C   -0.034989
 Electronic spatial extent (au):  <R**2>=           3994.1126
 Charge=             -0.0000 electrons
 Dipole moment (field-independent basis, Debye):
    X=              0.0000    Y=              0.0000    Z=              0.0000  Tot=              0.0000
 Quadrupole moment (field-independent basis, Debye-Ang):
   XX=            -90.7922   YY=            -86.1178   ZZ=            -98.2067
   XY=             -0.0000   XZ=             -2.6089   YZ=             -0.0000
 Traceless Quadrupole moment (field-independent basis, Debye-Ang):
   XX=              0.9134   YY=              5.5878   ZZ=             -6.5012
   XY=             -0.0000   XZ=             -2.6089   YZ=             -0.0000
 Octapole moment (field-independent basis, Debye-Ang**2):
  XXX=             -0.0000  YYY=             -0.0000  ZZZ=              0.0000  XYY=              0.0000
  XXY=             -0.0000  XXZ=             -0.0000  XZZ=              0.0000  YZZ=              0.0000
  YYZ=              0.0000  XYZ=             -0.0000
 Hexadecapole moment (field-independent basis, Debye-Ang**3):
 XXXX=          -4022.9701 YYYY=           -944.8314 ZZZZ=           -217.7963 XXXY=             -0.0001
 XXXZ=            -89.0111 YYYX=             -0.0000 YYYZ=             -0.0000 ZZZX=             -0.6424
 ZZZY=             -0.0000 XXYY=           -823.0988 XXZZ=           -824.4892 YYZZ=           -212.6749
 XXYZ=              0.0000 YYXZ=             -2.3225 ZZXY=             -0.0000
 N-N= 1.014447489049D+03 E-N=-3.462143009203D+03  KE= 6.132867260071D+02
 Unable to Open any file for archive entry.
 1\1\GINC-HPCS04\FOpt\RB3LYP\6-31G(d,p)\C16H16\Z002445\09-Dec-2025\0\\#
  opt=(maxstep=5) B3LYP/6-31G** SCF=(XQC,MaxCycle=200,noincore) Int=(Gr
 id=UltraFine)\\m2g_dcbod_chair\\0,1\C,-1.7505931593,-0.8287157261,-0.0
 441688399\C,-1.8493709629,0.5798665036,-0.0087880163\C,-3.0075052506,1
 .1884479167,-0.5093906067\C,-4.0571587903,0.4411768218,-1.0434071715\C
 ,-3.9597545608,-0.9478055307,-1.0782967265\C,-2.8142695226,-1.56710553
 52,-0.5786061487\C,-0.7377078045,1.4488144768,0.5425537905\C,0.5266719
 383,1.5605727691,-0.3768005537\C,1.750592756,0.8287218926,0.1343308126
 \C,1.8493708523,-0.5798602886,0.0989514203\C,3.0075055415,-1.188440891
 1,0.5995546253\C,4.0571593781,-0.4411690648,1.1335691726\C,3.959755419
 ,0.9478133767,1.1684565258\C,2.814269767,1.5671124819,0.6687660065\C,0
 .73770763,-1.4488098101,-0.452389247\C,-0.5266726586,-1.5605674734,0.4
 669637887\H,-3.0865309545,2.2724886014,-0.474877753\H,-4.943081537,0.9
 417992807,-1.4233079819\H,-4.7685173332,-1.5474898968,-1.4858365379\H,
 -2.7412009812,-2.651929217,-0.5985716432\H,-1.1406119433,2.4540206449,
 0.7014395695\H,-0.4254373672,1.0900790926,1.5301427871\H,0.7848747373,
 2.6188196959,-0.483855717\H,0.2640306719,1.2115816142,-1.3821666216\H,
 3.0865307711,-2.2724816401,0.5650432675\H,4.9430817226,-0.9417917606,1
 .513471045\H,4.7685185312,1.5474983683,1.5759943987\H,2.741201059,2.65
 19361784,0.6887303511\H,0.4254386634,-1.0900763349,-1.4399793744\H,1.1
 406131611,-2.4540158775,-0.6112724337\H,-0.7848770105,-2.6188141791,0.
 5740175693\H,-0.2640327631,-1.2115764894,1.4723302421\\Version=ES64L-G
 16RevC.02\State=1-A\HF=-619.3726011\RMSD=2.189e-09\RMSF=3.034e-05\Dipo
 le=-0.0000002,0.,0.0000003\Quadrupole=-0.3729353,4.1169034,-3.7439681,
 -0.3904412,2.904576,0.4020755\PG=C01 [X(C16H16)]\\@
 The archive entry for this job was punched.


 COMMON SENSE IS NOT SO COMMON.   -- VOLTAIRE
 Job cpu time:       0 days  0 hours 22 minutes  6.6 seconds.
 Elapsed time:       0 days  0 hours  0 minutes 47.4 seconds.
 File lengths (MBytes):  RWF=     70 Int=      0 D2E=      0 Chk=     10 Scr=      1
 Normal termination of Gaussian 16 at Tue Dec  9 16:04:33 2025.
