 Entering Gaussian System, Link 0=g16
 Input=dcbod_chair_b3lyp-dcp.gjf
 Output=dcbod_chair_b3lyp-dcp.log
 Initial command:
 /usr/local/gaussian16c02/g16/l1.exe "/scr/Gau-1328242.inp" -scrdir="/scr/"
 Entering Link 1 = /usr/local/gaussian16c02/g16/l1.exe PID=   1328243.
  
 Copyright (c) 1988-2021, Gaussian, Inc.  All Rights Reserved.
  
 This is part of the Gaussian(R) 16 program.  It is based on
 the Gaussian(R) 09 system (copyright 2009, Gaussian, Inc.),
 the Gaussian(R) 03 system (copyright 2003, Gaussian, Inc.),
 the Gaussian(R) 98 system (copyright 1998, Gaussian, Inc.),
 the Gaussian(R) 94 system (copyright 1995, Gaussian, Inc.),
 the Gaussian 92(TM) system (copyright 1992, Gaussian, Inc.),
 the Gaussian 90(TM) system (copyright 1990, Gaussian, Inc.),
 the Gaussian 88(TM) system (copyright 1988, Gaussian, Inc.),
 the Gaussian 86(TM) system (copyright 1986, Carnegie Mellon
 University), and the Gaussian 82(TM) system (copyright 1983,
 Carnegie Mellon University). Gaussian is a federally registered
 trademark of Gaussian, Inc.
  
 This software contains proprietary and confidential information,
 including trade secrets, belonging to Gaussian, Inc.
  
 This software is provided under written license and may be
 used, copied, transmitted, or stored only in accord with that
 written license.
  
 The following legend is applicable only to US Government
 contracts under FAR:
  
                    RESTRICTED RIGHTS LEGEND
  
 Use, reproduction and disclosure by the US Government is
 subject to restrictions as set forth in subparagraphs (a)
 and (c) of the Commercial Computer Software - Restricted
 Rights clause in FAR 52.227-19.
  
 Gaussian, Inc.
 340 Quinnipiac St., Bldg. 40, Wallingford CT 06492
  
  
 ---------------------------------------------------------------
 Warning -- This program may not be used in any manner that
 competes with the business of Gaussian, Inc. or will provide
 assistance to any competitor of Gaussian, Inc.  The licensee
 of this program is prohibited from giving any competitor of
 Gaussian, Inc. access to this program.  By using this program,
 the user acknowledges that Gaussian, Inc. is engaged in the
 business of creating and licensing software in the field of
 computational chemistry and represents and warrants to the
 licensee that it is not a competitor of Gaussian, Inc. and that
 it will not use this program in any manner prohibited above.
 ---------------------------------------------------------------
  

 Cite this work as:
 Gaussian 16, Revision C.02,
 M. J. Frisch, G. W. Trucks, H. B. Schlegel, G. E. Scuseria, 
 M. A. Robb, J. R. Cheeseman, G. Scalmani, V. Barone, 
 G. A. Petersson, H. Nakatsuji, X. Li, M. Caricato, A. V. Marenich, 
 J. Bloino, B. G. Janesko, R. Gomperts, B. Mennucci, H. P. Hratchian, 
 J. V. Ortiz, A. F. Izmaylov, J. L. Sonnenberg, D. Williams-Young, 
 F. Ding, F. Lipparini, F. Egidi, J. Goings, B. Peng, A. Petrone, 
 T. Henderson, D. Ranasinghe, V. G. Zakrzewski, J. Gao, N. Rega, 
 G. Zheng, W. Liang, M. Hada, M. Ehara, K. Toyota, R. Fukuda, 
 J. Hasegawa, M. Ishida, T. Nakajima, Y. Honda, O. Kitao, H. Nakai, 
 T. Vreven, K. Throssell, J. A. Montgomery, Jr., J. E. Peralta, 
 F. Ogliaro, M. J. Bearpark, J. J. Heyd, E. N. Brothers, K. N. Kudin, 
 V. N. Staroverov, T. A. Keith, R. Kobayashi, J. Normand, 
 K. Raghavachari, A. P. Rendell, J. C. Burant, S. S. Iyengar, 
 J. Tomasi, M. Cossi, J. M. Millam, M. Klene, C. Adamo, R. Cammi, 
 J. W. Ochterski, R. L. Martin, K. Morokuma, O. Farkas, 
 J. B. Foresman, and D. J. Fox, Gaussian, Inc., Wallingford CT, 2019.
 
 ******************************************
 Gaussian 16:  ES64L-G16RevC.02  7-Dec-2021
                 6-Jan-2026 
 ******************************************
 %chk=dcbod_chair_b3lyp-dcp.chk
 %mem=4GB
 %nprocshared=32
 Will use up to   32 processors via shared memory.
 ----------------------------------------------------------------------
 # opt=maxstep=5 b3lyp/gen int=grid=ultrafine scf=(xqc,maxcycle=200,noi
 ncore)
 ----------------------------------------------------------------------
 1/8=5,18=20,19=15,26=4,38=1/1,3;
 2/9=110,12=2,17=6,18=5,40=1/2;
 3/5=7,11=2,25=1,30=1,71=1,74=-5,75=-5/1,2,3;
 4//1;
 5/5=4,7=200,8=3,13=1,38=5/2,8;
 6/7=2,8=2,9=2,10=2,28=1/1;
 7//1,2,3,16;
 1/8=5,18=20,19=15,26=4/3(2);
 2/9=110/2;
 99//99;
 2/9=110/2;
 3/5=7,6=1,11=2,25=1,30=1,71=1,74=-5,75=-5,82=7/1,2,3;
 4/5=5,16=3,69=1/1;
 5/5=4,7=200,8=3,13=1,38=5/2,8;
 7//1,2,3,16;
 1/8=5,18=20,19=15,26=4/3(-5);
 2/9=110/2;
 6/7=2,8=2,9=2,10=2,19=2,28=1/1;
 99/9=1/99;
 ---------------
 m2g_dcbod_chair
 ---------------
 Symbolic Z-matrix:
 Charge =  0 Multiplicity = 1
 C                     1.77664   0.70624   0.32263 
 C                     1.77664  -0.70624   0.32263 
 C                     2.97533  -1.38159   0.0594 
 C                     4.16083  -0.69642  -0.20608 
 C                     4.16083   0.69642  -0.20608 
 C                     2.97533   1.38159   0.0594 
 C                     0.51933  -1.50886   0.58685 
 C                    -0.51933  -1.50886  -0.58685 
 C                    -1.77664  -0.70624  -0.32263 
 C                    -1.77664   0.70624  -0.32263 
 C                    -2.97533   1.38159  -0.0594 
 C                    -4.16083   0.69642   0.20608 
 C                    -4.16083  -0.69642   0.20608 
 C                    -2.97533  -1.38159  -0.0594 
 C                    -0.51933   1.50886  -0.58685 
 C                     0.51933   1.50886   0.58685 
 H                     2.97668  -2.46903   0.06716 
 H                     5.07491  -1.24809  -0.40586 
 H                     5.07491   1.24809  -0.40587 
 H                     2.97668   2.46903   0.06715 
 H                     0.81405  -2.54344   0.78881 
 H                     0.02294  -1.15402   1.49746 
 H                    -0.81405  -2.54344  -0.78881 
 H                    -0.02294  -1.15402  -1.49746 
 H                    -2.97668   2.46903  -0.06715 
 H                    -5.07491   1.24809   0.40586 
 H                    -5.07491  -1.24809   0.40586 
 H                    -2.97668  -2.46903  -0.06716 
 H                    -0.02294   1.15402  -1.49746 
 H                    -0.81405   2.54345  -0.78881 
 H                     0.81405   2.54345   0.78881 
 H                     0.02294   1.15402   1.49746 
 

 GradGradGradGradGradGradGradGradGradGradGradGradGradGradGradGradGradGrad
 Berny optimization.
 Initialization pass.
                           ----------------------------
                           !    Initial Parameters    !
                           ! (Angstroms and Degrees)  !
 --------------------------                            --------------------------
 ! Name  Definition              Value          Derivative Info.                !
 --------------------------------------------------------------------------------
 ! R1    R(1,2)                  1.4125         estimate D2E/DX2                !
 ! R2    R(1,6)                  1.4008         estimate D2E/DX2                !
 ! R3    R(1,16)                 1.5149         estimate D2E/DX2                !
 ! R4    R(2,3)                  1.4008         estimate D2E/DX2                !
 ! R5    R(2,7)                  1.5149         estimate D2E/DX2                !
 ! R6    R(3,4)                  1.3948         estimate D2E/DX2                !
 ! R7    R(3,17)                 1.0875         estimate D2E/DX2                !
 ! R8    R(4,5)                  1.3928         estimate D2E/DX2                !
 ! R9    R(4,18)                 1.0862         estimate D2E/DX2                !
 ! R10   R(5,6)                  1.3948         estimate D2E/DX2                !
 ! R11   R(5,19)                 1.0862         estimate D2E/DX2                !
 ! R12   R(6,20)                 1.0875         estimate D2E/DX2                !
 ! R13   R(7,8)                  1.5673         estimate D2E/DX2                !
 ! R14   R(7,21)                 1.0945         estimate D2E/DX2                !
 ! R15   R(7,22)                 1.0961         estimate D2E/DX2                !
 ! R16   R(8,9)                  1.5149         estimate D2E/DX2                !
 ! R17   R(8,23)                 1.0945         estimate D2E/DX2                !
 ! R18   R(8,24)                 1.0961         estimate D2E/DX2                !
 ! R19   R(9,10)                 1.4125         estimate D2E/DX2                !
 ! R20   R(9,14)                 1.4008         estimate D2E/DX2                !
 ! R21   R(10,11)                1.4008         estimate D2E/DX2                !
 ! R22   R(10,15)                1.5149         estimate D2E/DX2                !
 ! R23   R(11,12)                1.3948         estimate D2E/DX2                !
 ! R24   R(11,25)                1.0875         estimate D2E/DX2                !
 ! R25   R(12,13)                1.3928         estimate D2E/DX2                !
 ! R26   R(12,26)                1.0862         estimate D2E/DX2                !
 ! R27   R(13,14)                1.3948         estimate D2E/DX2                !
 ! R28   R(13,27)                1.0862         estimate D2E/DX2                !
 ! R29   R(14,28)                1.0875         estimate D2E/DX2                !
 ! R30   R(15,16)                1.5673         estimate D2E/DX2                !
 ! R31   R(15,29)                1.0961         estimate D2E/DX2                !
 ! R32   R(15,30)                1.0945         estimate D2E/DX2                !
 ! R33   R(16,31)                1.0945         estimate D2E/DX2                !
 ! R34   R(16,32)                1.0961         estimate D2E/DX2                !
 ! A1    A(2,1,6)              118.8238         estimate D2E/DX2                !
 ! A2    A(2,1,16)             121.9936         estimate D2E/DX2                !
 ! A3    A(6,1,16)             119.1806         estimate D2E/DX2                !
 ! A4    A(1,2,3)              118.8238         estimate D2E/DX2                !
 ! A5    A(1,2,7)              121.9936         estimate D2E/DX2                !
 ! A6    A(3,2,7)              119.1806         estimate D2E/DX2                !
 ! A7    A(2,3,4)              121.7529         estimate D2E/DX2                !
 ! A8    A(2,3,17)             118.8046         estimate D2E/DX2                !
 ! A9    A(4,3,17)             119.4421         estimate D2E/DX2                !
 ! A10   A(3,4,5)              119.4228         estimate D2E/DX2                !
 ! A11   A(3,4,18)             120.0523         estimate D2E/DX2                !
 ! A12   A(5,4,18)             120.5242         estimate D2E/DX2                !
 ! A13   A(4,5,6)              119.4229         estimate D2E/DX2                !
 ! A14   A(4,5,19)             120.5242         estimate D2E/DX2                !
 ! A15   A(6,5,19)             120.0523         estimate D2E/DX2                !
 ! A16   A(1,6,5)              121.7529         estimate D2E/DX2                !
 ! A17   A(1,6,20)             118.8045         estimate D2E/DX2                !
 ! A18   A(5,6,20)             119.4422         estimate D2E/DX2                !
 ! A19   A(2,7,8)              114.798          estimate D2E/DX2                !
 ! A20   A(2,7,21)             108.0291         estimate D2E/DX2                !
 ! A21   A(2,7,22)             110.4407         estimate D2E/DX2                !
 ! A22   A(8,7,21)             108.4591         estimate D2E/DX2                !
 ! A23   A(8,7,22)             108.7847         estimate D2E/DX2                !
 ! A24   A(21,7,22)            105.9404         estimate D2E/DX2                !
 ! A25   A(7,8,9)              114.798          estimate D2E/DX2                !
 ! A26   A(7,8,23)             108.459          estimate D2E/DX2                !
 ! A27   A(7,8,24)             108.7847         estimate D2E/DX2                !
 ! A28   A(9,8,23)             108.0291         estimate D2E/DX2                !
 ! A29   A(9,8,24)             110.4407         estimate D2E/DX2                !
 ! A30   A(23,8,24)            105.9405         estimate D2E/DX2                !
 ! A31   A(8,9,10)             121.9936         estimate D2E/DX2                !
 ! A32   A(8,9,14)             119.1806         estimate D2E/DX2                !
 ! A33   A(10,9,14)            118.8238         estimate D2E/DX2                !
 ! A34   A(9,10,11)            118.8237         estimate D2E/DX2                !
 ! A35   A(9,10,15)            121.9936         estimate D2E/DX2                !
 ! A36   A(11,10,15)           119.1807         estimate D2E/DX2                !
 ! A37   A(10,11,12)           121.753          estimate D2E/DX2                !
 ! A38   A(10,11,25)           118.8044         estimate D2E/DX2                !
 ! A39   A(12,11,25)           119.4422         estimate D2E/DX2                !
 ! A40   A(11,12,13)           119.4228         estimate D2E/DX2                !
 ! A41   A(11,12,26)           120.0523         estimate D2E/DX2                !
 ! A42   A(13,12,26)           120.5242         estimate D2E/DX2                !
 ! A43   A(12,13,14)           119.4229         estimate D2E/DX2                !
 ! A44   A(12,13,27)           120.5242         estimate D2E/DX2                !
 ! A45   A(14,13,27)           120.0523         estimate D2E/DX2                !
 ! A46   A(9,14,13)            121.7529         estimate D2E/DX2                !
 ! A47   A(9,14,28)            118.8045         estimate D2E/DX2                !
 ! A48   A(13,14,28)           119.4422         estimate D2E/DX2                !
 ! A49   A(10,15,16)           114.798          estimate D2E/DX2                !
 ! A50   A(10,15,29)           110.4406         estimate D2E/DX2                !
 ! A51   A(10,15,30)           108.029          estimate D2E/DX2                !
 ! A52   A(16,15,29)           108.7848         estimate D2E/DX2                !
 ! A53   A(16,15,30)           108.4591         estimate D2E/DX2                !
 ! A54   A(29,15,30)           105.9405         estimate D2E/DX2                !
 ! A55   A(1,16,15)            114.798          estimate D2E/DX2                !
 ! A56   A(1,16,31)            108.029          estimate D2E/DX2                !
 ! A57   A(1,16,32)            110.4407         estimate D2E/DX2                !
 ! A58   A(15,16,31)           108.459          estimate D2E/DX2                !
 ! A59   A(15,16,32)           108.7847         estimate D2E/DX2                !
 ! A60   A(31,16,32)           105.9405         estimate D2E/DX2                !
 ! D1    D(6,1,2,3)              0.0001         estimate D2E/DX2                !
 ! D2    D(6,1,2,7)           -179.4825         estimate D2E/DX2                !
 ! D3    D(16,1,2,3)           179.4826         estimate D2E/DX2                !
 ! D4    D(16,1,2,7)             0.0            estimate D2E/DX2                !
 ! D5    D(2,1,6,5)              0.2432         estimate D2E/DX2                !
 ! D6    D(2,1,6,20)          -179.5273         estimate D2E/DX2                !
 ! D7    D(16,1,6,5)          -179.2541         estimate D2E/DX2                !
 ! D8    D(16,1,6,20)            0.9754         estimate D2E/DX2                !
 ! D9    D(2,1,16,15)          -73.224          estimate D2E/DX2                !
 ! D10   D(2,1,16,31)          165.633          estimate D2E/DX2                !
 ! D11   D(2,1,16,32)           50.1949         estimate D2E/DX2                !
 ! D12   D(6,1,16,15)          106.2567         estimate D2E/DX2                !
 ! D13   D(6,1,16,31)          -14.8863         estimate D2E/DX2                !
 ! D14   D(6,1,16,32)         -130.3244         estimate D2E/DX2                !
 ! D15   D(1,2,3,4)             -0.2432         estimate D2E/DX2                !
 ! D16   D(1,2,3,17)           179.5272         estimate D2E/DX2                !
 ! D17   D(7,2,3,4)            179.2541         estimate D2E/DX2                !
 ! D18   D(7,2,3,17)            -0.9754         estimate D2E/DX2                !
 ! D19   D(1,2,7,8)             73.224          estimate D2E/DX2                !
 ! D20   D(1,2,7,21)          -165.6329         estimate D2E/DX2                !
 ! D21   D(1,2,7,22)           -50.1948         estimate D2E/DX2                !
 ! D22   D(3,2,7,8)           -106.2568         estimate D2E/DX2                !
 ! D23   D(3,2,7,21)            14.8864         estimate D2E/DX2                !
 ! D24   D(3,2,7,22)           130.3244         estimate D2E/DX2                !
 ! D25   D(2,3,4,5)              0.2446         estimate D2E/DX2                !
 ! D26   D(2,3,4,18)           179.9521         estimate D2E/DX2                !
 ! D27   D(17,3,4,5)          -179.5245         estimate D2E/DX2                !
 ! D28   D(17,3,4,18)            0.183          estimate D2E/DX2                !
 ! D29   D(3,4,5,6)              0.0001         estimate D2E/DX2                !
 ! D30   D(3,4,5,19)           179.7061         estimate D2E/DX2                !
 ! D31   D(18,4,5,6)          -179.706          estimate D2E/DX2                !
 ! D32   D(18,4,5,19)            0.0            estimate D2E/DX2                !
 ! D33   D(4,5,6,1)             -0.2447         estimate D2E/DX2                !
 ! D34   D(4,5,6,20)           179.5243         estimate D2E/DX2                !
 ! D35   D(19,5,6,1)          -179.952          estimate D2E/DX2                !
 ! D36   D(19,5,6,20)           -0.183          estimate D2E/DX2                !
 ! D37   D(2,7,8,9)           -108.586          estimate D2E/DX2                !
 ! D38   D(2,7,8,23)           130.5066         estimate D2E/DX2                !
 ! D39   D(2,7,8,24)            15.7124         estimate D2E/DX2                !
 ! D40   D(21,7,8,9)           130.5065         estimate D2E/DX2                !
 ! D41   D(21,7,8,23)            9.5991         estimate D2E/DX2                !
 ! D42   D(21,7,8,24)         -105.1951         estimate D2E/DX2                !
 ! D43   D(22,7,8,9)            15.7123         estimate D2E/DX2                !
 ! D44   D(22,7,8,23)         -105.1951         estimate D2E/DX2                !
 ! D45   D(22,7,8,24)          140.0107         estimate D2E/DX2                !
 ! D46   D(7,8,9,10)            73.2239         estimate D2E/DX2                !
 ! D47   D(7,8,9,14)          -106.2568         estimate D2E/DX2                !
 ! D48   D(23,8,9,10)         -165.633          estimate D2E/DX2                !
 ! D49   D(23,8,9,14)           14.8862         estimate D2E/DX2                !
 ! D50   D(24,8,9,10)          -50.1949         estimate D2E/DX2                !
 ! D51   D(24,8,9,14)          130.3243         estimate D2E/DX2                !
 ! D52   D(8,9,10,11)         -179.4825         estimate D2E/DX2                !
 ! D53   D(8,9,10,15)            0.0            estimate D2E/DX2                !
 ! D54   D(14,9,10,11)           0.0            estimate D2E/DX2                !
 ! D55   D(14,9,10,15)         179.4826         estimate D2E/DX2                !
 ! D56   D(8,9,14,13)          179.2541         estimate D2E/DX2                !
 ! D57   D(8,9,14,28)           -0.9753         estimate D2E/DX2                !
 ! D58   D(10,9,14,13)          -0.2432         estimate D2E/DX2                !
 ! D59   D(10,9,14,28)         179.5273         estimate D2E/DX2                !
 ! D60   D(9,10,11,12)           0.2432         estimate D2E/DX2                !
 ! D61   D(9,10,11,25)        -179.5273         estimate D2E/DX2                !
 ! D62   D(15,10,11,12)       -179.2541         estimate D2E/DX2                !
 ! D63   D(15,10,11,25)          0.9753         estimate D2E/DX2                !
 ! D64   D(9,10,15,16)         -73.2239         estimate D2E/DX2                !
 ! D65   D(9,10,15,29)          50.1949         estimate D2E/DX2                !
 ! D66   D(9,10,15,30)         165.633          estimate D2E/DX2                !
 ! D67   D(11,10,15,16)        106.2569         estimate D2E/DX2                !
 ! D68   D(11,10,15,29)       -130.3243         estimate D2E/DX2                !
 ! D69   D(11,10,15,30)        -14.8862         estimate D2E/DX2                !
 ! D70   D(10,11,12,13)         -0.2447         estimate D2E/DX2                !
 ! D71   D(10,11,12,26)       -179.9521         estimate D2E/DX2                !
 ! D72   D(25,11,12,13)        179.5245         estimate D2E/DX2                !
 ! D73   D(25,11,12,26)         -0.183          estimate D2E/DX2                !
 ! D74   D(11,12,13,14)          0.0            estimate D2E/DX2                !
 ! D75   D(11,12,13,27)       -179.706          estimate D2E/DX2                !
 ! D76   D(26,12,13,14)        179.706          estimate D2E/DX2                !
 ! D77   D(26,12,13,27)          0.0            estimate D2E/DX2                !
 ! D78   D(12,13,14,9)           0.2447         estimate D2E/DX2                !
 ! D79   D(12,13,14,28)       -179.5245         estimate D2E/DX2                !
 ! D80   D(27,13,14,9)         179.9521         estimate D2E/DX2                !
 ! D81   D(27,13,14,28)          0.1829         estimate D2E/DX2                !
 ! D82   D(10,15,16,1)         108.5859         estimate D2E/DX2                !
 ! D83   D(10,15,16,31)       -130.5067         estimate D2E/DX2                !
 ! D84   D(10,15,16,32)        -15.7125         estimate D2E/DX2                !
 ! D85   D(29,15,16,1)         -15.7124         estimate D2E/DX2                !
 ! D86   D(29,15,16,31)        105.1949         estimate D2E/DX2                !
 ! D87   D(29,15,16,32)       -140.0108         estimate D2E/DX2                !
 ! D88   D(30,15,16,1)        -130.5067         estimate D2E/DX2                !
 ! D89   D(30,15,16,31)         -9.5994         estimate D2E/DX2                !
 ! D90   D(30,15,16,32)        105.1948         estimate D2E/DX2                !
 --------------------------------------------------------------------------------
 Trust Radius=5.00D-02 FncErr=1.00D-07 GrdErr=1.00D-06 EigMax=2.50D+02 EigMin=1.00D-04
 Number of steps in this run=    192 maximum allowed number of steps=    192.
 GradGradGradGradGradGradGradGradGradGradGradGradGradGradGradGradGradGrad

                          Input orientation:                          
 ---------------------------------------------------------------------
 Center     Atomic      Atomic             Coordinates (Angstroms)
 Number     Number       Type             X           Y           Z
 ---------------------------------------------------------------------
      1          6           0        1.776640    0.706242    0.322628
      2          6           0        1.776640   -0.706242    0.322628
      3          6           0        2.975331   -1.381594    0.059402
      4          6           0        4.160831   -0.696416   -0.206082
      5          6           0        4.160831    0.696415   -0.206084
      6          6           0        2.975332    1.381594    0.059400
      7          6           0        0.519326   -1.508859    0.586848
      8          6           0       -0.519326   -1.508859   -0.586847
      9          6           0       -1.776640   -0.706242   -0.322628
     10          6           0       -1.776640    0.706243   -0.322627
     11          6           0       -2.975332    1.381593   -0.059401
     12          6           0       -4.160831    0.696415    0.206082
     13          6           0       -4.160831   -0.696416    0.206081
     14          6           0       -2.975332   -1.381594   -0.059403
     15          6           0       -0.519326    1.508861   -0.586846
     16          6           0        0.519327    1.508860    0.586848
     17          1           0        2.976676   -2.469031    0.067157
     18          1           0        5.074913   -1.248094   -0.405864
     19          1           0        5.074913    1.248092   -0.405867
     20          1           0        2.976676    2.469030    0.067154
     21          1           0        0.814049   -2.543444    0.788811
     22          1           0        0.022936   -1.154015    1.497463
     23          1           0       -0.814049   -2.543444   -0.788808
     24          1           0       -0.022936   -1.154016   -1.497461
     25          1           0       -2.976676    2.469030   -0.067154
     26          1           0       -5.074913    1.248093    0.405864
     27          1           0       -5.074913   -1.248094    0.405862
     28          1           0       -2.976675   -2.469030   -0.067157
     29          1           0       -0.022938    1.154018   -1.497462
     30          1           0       -0.814051    2.543445   -0.788806
     31          1           0        0.814052    2.543445    0.788808
     32          1           0        0.022937    1.154018    1.497463
 ---------------------------------------------------------------------
                    Distance matrix (angstroms):
                    1          2          3          4          5
     1  C    0.000000
     2  C    1.412484   0.000000
     3  C    2.421819   1.400803   0.000000
     4  C    2.816265   2.442130   1.394762   0.000000
     5  C    2.442130   2.816265   2.407076   1.392831   0.000000
     6  C    1.400804   2.421820   2.763188   2.407076   1.394762
     7  C    2.560727   1.514875   2.515225   3.814362   4.330420
     8  C    3.317420   2.596690   3.556186   4.765387   5.187686
     9  C    3.877791   3.611392   4.814901   5.938623   6.102015
    10  C    3.611392   3.877791   5.204444   6.102016   5.938623
    11  C    4.814902   5.204444   6.561990   7.434007   7.170482
    12  C    5.938623   6.102015   7.434006   8.447480   8.331863
    13  C    6.102016   5.938623   7.170481   8.331863   8.447480
    14  C    5.204445   4.814902   5.951849   7.170482   7.434007
    15  C    2.596690   3.317421   4.580938   5.187687   4.765387
    16  C    1.514874   2.560727   3.829475   4.330419   3.814362
    17  H    3.404073   2.147738   1.087465   2.149197   3.390713
    18  H    3.902401   3.420951   2.154655   1.086189   2.157909
    19  H    3.420952   3.902401   3.397053   2.157909   1.086189
    20  H    2.147737   3.404072   3.850632   3.390712   2.149197
    21  H    3.421165   2.125846   2.559897   3.949971   4.763135
    22  H    2.813587   2.157827   3.291876   4.498182   4.842348
    23  H    4.302025   3.364858   4.053240   5.338587   5.965374
    24  H    3.164136   2.598403   3.386033   4.402382   4.753489
    25  H    5.084620   5.729598   7.090113   7.809184   7.355642
    26  H    6.873450   7.125316   8.475949   9.458042   9.272421
    27  H    7.125317   6.873450   8.058802   9.272421   9.458042
    28  H    5.729598   5.084620   6.051852   7.355641   7.809183
    29  H    2.598406   3.164139   4.224070   4.753493   4.402384
    30  H    3.364860   4.302026   5.521305   5.965377   5.338589
    31  H    2.125844   3.421164   4.539724   4.763133   3.949970
    32  H    2.157826   2.813588   4.148973   4.842348   4.498182
                    6          7          8          9         10
     6  C    0.000000
     7  C    3.829476   0.000000
     8  C    4.580937   1.567277   0.000000
     9  C    5.204444   2.596690   1.514874   0.000000
    10  C    4.814902   3.317421   2.560728   1.412485   0.000000
    11  C    5.951850   4.580937   3.829475   2.421819   1.400803
    12  C    7.170482   5.187686   4.330419   2.816265   2.442130
    13  C    7.434007   4.765387   3.814362   2.442129   2.816265
    14  C    6.561991   3.556188   2.515225   1.400803   2.421820
    15  C    3.556187   3.400440   3.017720   2.560729   1.514875
    16  C    2.515225   3.017719   3.400439   3.317422   2.596691
    17  H    3.850633   2.688973   3.683976   5.084621   5.729599
    18  H    3.397053   4.669780   5.603237   6.873450   7.125317
    19  H    2.154655   5.416607   6.239314   7.125316   6.873449
    20  H    1.087464   4.704493   5.336042   5.729598   5.084620
    21  H    4.539726   1.094540   2.177313   3.364859   4.302026
    22  H    4.148973   1.096146   2.182730   2.598404   3.164137
    23  H    5.521303   2.177311   1.094539   2.125845   3.421165
    24  H    4.224067   2.182729   1.096145   2.157826   2.813588
    25  H    6.051854   5.336042   4.704493   3.404072   2.147736
    26  H    8.058803   6.239315   5.416607   3.902401   3.420951
    27  H    8.475951   5.603237   4.669780   3.420951   3.902401
    28  H    7.090113   3.683975   2.688972   2.147736   3.404072
    29  H    3.386035   3.424808   2.857715   2.813587   2.157825
    30  H    4.053242   4.482353   4.068024   3.421164   2.125844
    31  H    2.559896   4.068024   4.482353   4.302028   3.364860
    32  H    3.291877   2.857715   3.424808   3.164139   2.598405
                   11         12         13         14         15
    11  C    0.000000
    12  C    1.394761   0.000000
    13  C    2.407075   1.392831   0.000000
    14  C    2.763187   2.407075   1.394761   0.000000
    15  C    2.515226   3.814363   4.330420   3.829477   0.000000
    16  C    3.556188   4.765389   5.187688   4.580939   1.567277
    17  H    7.090114   7.809184   7.355642   6.051854   5.336045
    18  H    8.475950   9.458042   9.272421   8.058803   6.239316
    19  H    8.058803   9.272421   9.458042   8.475950   5.603237
    20  H    6.051854   7.355642   7.809184   7.090114   3.683975
    21  H    5.521303   5.965374   5.338588   4.053242   4.482354
    22  H    4.224067   4.753489   4.402382   3.386035   3.424807
    23  H    4.539724   4.763134   3.949970   2.559897   4.068025
    24  H    4.148972   4.842347   4.498181   3.291876   2.857715
    25  H    1.087465   2.149196   3.390712   3.850632   2.688973
    26  H    2.154654   1.086189   2.157910   3.397053   4.669780
    27  H    3.397052   2.157909   1.086189   2.154654   5.416608
    28  H    3.850631   3.390712   2.149196   1.087464   4.704493
    29  H    3.291875   4.498180   4.842347   4.148972   1.096146
    30  H    2.559896   3.949969   4.763133   4.539724   1.094539
    31  H    4.053244   5.338591   5.965378   5.521306   2.177311
    32  H    3.386035   4.402383   4.753492   4.224071   2.182729
                   16         17         18         19         20
    16  C    0.000000
    17  H    4.704494   0.000000
    18  H    5.416607   2.473264   0.000000
    19  H    4.669780   4.294573   2.496186   0.000000
    20  H    2.688972   4.938061   4.294573   2.473264   0.000000
    21  H    4.068024   2.281069   4.610872   5.827346   5.506600
    22  H    2.857714   3.535480   5.399442   5.908913   4.888437
    23  H    4.482353   3.886877   6.041891   7.014432   6.342489
    24  H    3.424807   3.629734   5.214259   5.740189   4.957031
    25  H    3.683976   7.735948   8.874673   8.150675   5.954867
    26  H    5.603238   8.874673  10.483741  10.182233   8.150675
    27  H    6.239317   8.150674  10.182233  10.483741   8.874673
    28  H    5.336044   5.954866   8.150673   8.874671   7.735946
    29  H    2.182730   4.957035   5.740193   5.214261   3.629733
    30  H    2.177312   6.342492   7.014436   6.041894   3.886877
    31  H    1.094540   5.506600   5.827345   4.610870   2.281067
    32  H    1.096146   4.888439   5.908913   5.399442   3.535479
                   21         22         23         24         25
    21  H    0.000000
    22  H    1.748874   0.000000
    23  H    2.267065   2.803229   0.000000
    24  H    2.803229   2.995275   1.748874   0.000000
    25  H    6.342489   4.957031   5.506599   4.888437   0.000000
    26  H    7.014433   5.740190   5.827346   5.908912   2.473263
    27  H    6.041892   5.214260   4.610871   5.399441   4.294573
    28  H    3.886876   3.629734   2.281067   3.535478   4.938060
    29  H    4.427055   3.781362   3.846982   2.308034   3.535478
    30  H    5.569203   4.427051   5.086889   3.846982   2.281067
    31  H    5.086889   3.846982   5.569203   4.427052   3.886879
    32  H    3.846982   2.308033   4.427054   3.781362   3.629733
                   26         27         28         29         30
    26  H    0.000000
    27  H    2.496187   0.000000
    28  H    4.294573   2.473264   0.000000
    29  H    5.399440   5.908912   4.888437   0.000000
    30  H    4.610870   5.827345   5.506598   1.748874   0.000000
    31  H    6.041895   7.014437   6.342491   2.803229   2.267065
    32  H    5.214261   5.740192   4.957034   2.995276   2.803227
                   31         32
    31  H    0.000000
    32  H    1.748875   0.000000
 Stoichiometry    C16H16
 Framework group  C1[X(C16H16)]
 Deg. of freedom    90
 Full point group                 C1      NOp   1
 Largest Abelian subgroup         C1      NOp   1
 Largest concise Abelian subgroup C1      NOp   1
                         Standard orientation:                         
 ---------------------------------------------------------------------
 Center     Atomic      Atomic             Coordinates (Angstroms)
 Number     Number       Type             X           Y           Z
 ---------------------------------------------------------------------
      1          6           0        1.776640    0.706242    0.322628
      2          6           0        1.776640   -0.706242    0.322628
      3          6           0        2.975331   -1.381594    0.059402
      4          6           0        4.160831   -0.696416   -0.206082
      5          6           0        4.160831    0.696415   -0.206084
      6          6           0        2.975332    1.381594    0.059400
      7          6           0        0.519326   -1.508859    0.586848
      8          6           0       -0.519326   -1.508859   -0.586847
      9          6           0       -1.776640   -0.706242   -0.322628
     10          6           0       -1.776640    0.706243   -0.322627
     11          6           0       -2.975332    1.381593   -0.059401
     12          6           0       -4.160831    0.696415    0.206082
     13          6           0       -4.160831   -0.696416    0.206081
     14          6           0       -2.975332   -1.381594   -0.059403
     15          6           0       -0.519326    1.508861   -0.586846
     16          6           0        0.519327    1.508860    0.586848
     17          1           0        2.976676   -2.469031    0.067157
     18          1           0        5.074913   -1.248094   -0.405864
     19          1           0        5.074913    1.248092   -0.405867
     20          1           0        2.976676    2.469030    0.067154
     21          1           0        0.814049   -2.543444    0.788811
     22          1           0        0.022936   -1.154015    1.497463
     23          1           0       -0.814049   -2.543444   -0.788808
     24          1           0       -0.022936   -1.154016   -1.497461
     25          1           0       -2.976676    2.469030   -0.067154
     26          1           0       -5.074913    1.248093    0.405864
     27          1           0       -5.074913   -1.248094    0.405862
     28          1           0       -2.976675   -2.469030   -0.067157
     29          1           0       -0.022938    1.154018   -1.497462
     30          1           0       -0.814051    2.543445   -0.788806
     31          1           0        0.814052    2.543445    0.788808
     32          1           0        0.022937    1.154018    1.497463
 ---------------------------------------------------------------------
 Rotational constants (GHZ):           1.4590454           0.3161456           0.2698176
 General basis read from cards:  (5D, 7F)
 There are   272 symmetry adapted cartesian basis functions of A   symmetry.
 There are   256 symmetry adapted basis functions of A   symmetry.
   256 basis functions,   512 primitive gaussians,   272 cartesian basis functions
    56 alpha electrons       56 beta electrons
       nuclear repulsion energy      1014.4474796777 Hartrees.
 NAtoms=   32 NActive=   32 NUniq=   32 SFac= 1.00D+00 NAtFMM=   60 NAOKFM=F Big=F
 Integral buffers will be    131072 words long.
 Raffenetti 2 integral format.
 Two-electron integral symmetry is turned on.
 One-electron integrals computed using PRISM.
 NBasis=   256 RedAO= T EigKep=  4.08D-04  NBF=   256
 NBsUse=   256 1.00D-06 EigRej= -1.00D+00 NBFU=   256
 ExpMin= 1.61D-01 ExpMax= 3.05D+03 ExpMxC= 4.57D+02 IAcc=3 IRadAn=         5 AccDes= 0.00D+00
 Harris functional with IExCor=  402 and IRadAn=       5 diagonalized for initial guess.
 HarFok:  IExCor=  402 AccDes= 0.00D+00 IRadAn=         5 IDoV= 1 UseB2=F ITyADJ=14
 ICtDFT=  3500011 ScaDFX=  1.000000  1.000000  1.000000  1.000000
 FoFCou: FMM=F IPFlag=           0 FMFlag=      100000 FMFlg1=           0
         NFxFlg=           0 DoJE=T BraDBF=F KetDBF=T FulRan=T
         wScrn=  0.000000 ICntrl=       500 IOpCl=  0 I1Cent=   200000004 NGrid=           0
         NMat0=    1 NMatS0=      1 NMatT0=    0 NMatD0=    1 NMtDS0=    0 NMtDT0=    0
 Petite list used in FoFCou.
 Requested convergence on RMS density matrix=1.00D-08 within 128 cycles.
 Requested convergence on MAX density matrix=1.00D-06.
 Requested convergence on             energy=1.00D-06.
 No special actions if energy rises.
 Integral accuracy reduced to 1.0D-05 until final iterations.
 Initial convergence to 1.0D-05 achieved.  Increase integral accuracy.
 SCF Done:  E(RB3LYP) =  -619.336462338     A.U. after   13 cycles
            NFock= 13  Conv=0.44D-08     -V/T= 2.0065
 QCSCF skips out because SCF is already converged.

 **********************************************************************

            Population analysis using the SCF Density.

 **********************************************************************

 Orbital symmetries:
       Occupied  (A) (A) (A) (A) (A) (A) (A) (A) (A) (A) (A) (A)
                 (A) (A) (A) (A) (A) (A) (A) (A) (A) (A) (A) (A)
                 (A) (A) (A) (A) (A) (A) (A) (A) (A) (A) (A) (A)
                 (A) (A) (A) (A) (A) (A) (A) (A) (A) (A) (A) (A)
                 (A) (A) (A) (A) (A) (A) (A) (A)
       Virtual   (A) (A) (A) (A) (A) (A) (A) (A) (A) (A) (A) (A)
                 (A) (A) (A) (A) (A) (A) (A) (A) (A) (A) (A) (A)
                 (A) (A) (A) (A) (A) (A) (A) (A) (A) (A) (A) (A)
                 (A) (A) (A) (A) (A) (A) (A) (A) (A) (A) (A) (A)
                 (A) (A) (A) (A) (A) (A) (A) (A) (A) (A) (A) (A)
                 (A) (A) (A) (A) (A) (A) (A) (A) (A) (A) (A) (A)
                 (A) (A) (A) (A) (A) (A) (A) (A) (A) (A) (A) (A)
                 (A) (A) (A) (A) (A) (A) (A) (A) (A) (A) (A) (A)
                 (A) (A) (A) (A) (A) (A) (A) (A) (A) (A) (A) (A)
                 (A) (A) (A) (A) (A) (A) (A) (A) (A) (A) (A) (A)
                 (A) (A) (A) (A) (A) (A) (A) (A) (A) (A) (A) (A)
                 (A) (A) (A) (A) (A) (A) (A) (A) (A) (A) (A) (A)
                 (A) (A) (A) (A) (A) (A) (A) (A) (A) (A) (A) (A)
                 (A) (A) (A) (A) (A) (A) (A) (A) (A) (A) (A) (A)
                 (A) (A) (A) (A) (A) (A) (A) (A) (A) (A) (A) (A)
                 (A) (A) (A) (A) (A) (A) (A) (A) (A) (A) (A) (A)
                 (A) (A) (A) (A) (A) (A) (A) (A)
 The electronic state is 1-A.
 Alpha  occ. eigenvalues --  -10.18423 -10.18423 -10.18385 -10.18385 -10.17959
 Alpha  occ. eigenvalues --  -10.17954 -10.17950 -10.17945 -10.17669 -10.17669
 Alpha  occ. eigenvalues --  -10.17627 -10.17627 -10.17560 -10.17560 -10.17559
 Alpha  occ. eigenvalues --  -10.17559  -0.85932  -0.84760  -0.79193  -0.78373
 Alpha  occ. eigenvalues --   -0.75324  -0.74626  -0.71450  -0.68884  -0.64988
 Alpha  occ. eigenvalues --   -0.62344  -0.59635  -0.58400  -0.57103  -0.55027
 Alpha  occ. eigenvalues --   -0.49945  -0.49738  -0.47280  -0.45943  -0.45119
 Alpha  occ. eigenvalues --   -0.45059  -0.42015  -0.41668  -0.41020  -0.40735
 Alpha  occ. eigenvalues --   -0.40354  -0.40212  -0.36791  -0.36579  -0.36165
 Alpha  occ. eigenvalues --   -0.35532  -0.34868  -0.33466  -0.33444  -0.33245
 Alpha  occ. eigenvalues --   -0.31894  -0.30756  -0.24246  -0.23842  -0.23715
 Alpha  occ. eigenvalues --   -0.22598
 Alpha virt. eigenvalues --   -0.00250   0.00677   0.00678   0.01050   0.08736
 Alpha virt. eigenvalues --    0.09351   0.10686   0.11470   0.11783   0.12991
 Alpha virt. eigenvalues --    0.13899   0.15020   0.15901   0.17680   0.17733
 Alpha virt. eigenvalues --    0.17928   0.18179   0.19029   0.20169   0.20390
 Alpha virt. eigenvalues --    0.20962   0.22251   0.23542   0.25790   0.25844
 Alpha virt. eigenvalues --    0.27087   0.27914   0.29458   0.31800   0.32644
 Alpha virt. eigenvalues --    0.34008   0.35050   0.35126   0.35588   0.37493
 Alpha virt. eigenvalues --    0.39793   0.47436   0.50016   0.50105   0.51183
 Alpha virt. eigenvalues --    0.52320   0.53341   0.54276   0.54366   0.54718
 Alpha virt. eigenvalues --    0.56185   0.56629   0.58060   0.58119   0.59235
 Alpha virt. eigenvalues --    0.59806   0.61013   0.61130   0.62011   0.62039
 Alpha virt. eigenvalues --    0.62449   0.62661   0.62862   0.64176   0.64327
 Alpha virt. eigenvalues --    0.65340   0.65897   0.67049   0.67197   0.68445
 Alpha virt. eigenvalues --    0.71661   0.72977   0.74037   0.74221   0.76351
 Alpha virt. eigenvalues --    0.78238   0.78996   0.80291   0.82347   0.83752
 Alpha virt. eigenvalues --    0.83816   0.83971   0.84087   0.85083   0.85403
 Alpha virt. eigenvalues --    0.86297   0.88698   0.88943   0.89258   0.90092
 Alpha virt. eigenvalues --    0.90813   0.92536   0.93417   0.94806   0.94987
 Alpha virt. eigenvalues --    0.96100   0.98463   0.99349   0.99518   1.01423
 Alpha virt. eigenvalues --    1.02334   1.05872   1.06576   1.08870   1.11153
 Alpha virt. eigenvalues --    1.11187   1.14309   1.14937   1.15854   1.16477
 Alpha virt. eigenvalues --    1.21847   1.23517   1.26017   1.26864   1.28165
 Alpha virt. eigenvalues --    1.30678   1.33619   1.34659   1.39975   1.43206
 Alpha virt. eigenvalues --    1.43337   1.45297   1.45971   1.48811   1.48857
 Alpha virt. eigenvalues --    1.49063   1.50659   1.50951   1.51204   1.54055
 Alpha virt. eigenvalues --    1.54602   1.58433   1.60119   1.69690   1.74964
 Alpha virt. eigenvalues --    1.78102   1.79043   1.81276   1.81829   1.82791
 Alpha virt. eigenvalues --    1.83012   1.85737   1.87654   1.87948   1.88239
 Alpha virt. eigenvalues --    1.89068   1.90346   1.92082   1.93007   1.93086
 Alpha virt. eigenvalues --    1.96898   1.97865   2.00293   2.04232   2.04806
 Alpha virt. eigenvalues --    2.04897   2.05582   2.09015   2.09087   2.11066
 Alpha virt. eigenvalues --    2.11819   2.17617   2.17645   2.22397   2.22655
 Alpha virt. eigenvalues --    2.23762   2.26436   2.26659   2.27817   2.27824
 Alpha virt. eigenvalues --    2.29355   2.30178   2.33184   2.33659   2.35051
 Alpha virt. eigenvalues --    2.36036   2.38541   2.40605   2.41447   2.49463
 Alpha virt. eigenvalues --    2.49696   2.51922   2.54910   2.58594   2.62222
 Alpha virt. eigenvalues --    2.62813   2.63519   2.66216   2.66818   2.70427
 Alpha virt. eigenvalues --    2.71534   2.76083   2.76421   2.77668   2.78300
 Alpha virt. eigenvalues --    2.78495   2.78914   2.79075   2.81727   2.96697
 Alpha virt. eigenvalues --    2.98707   3.08976   3.10408   3.42133   3.42410
          Condensed to atoms (all electrons):
               1          2          3          4          5          6
     1  C    4.728861   0.535577  -0.015056  -0.041737  -0.020970   0.517718
     2  C    0.535577   4.728860   0.517718  -0.020970  -0.041737  -0.015056
     3  C   -0.015056   0.517718   4.995501   0.517554  -0.024708  -0.062906
     4  C   -0.041737  -0.020970   0.517554   4.862335   0.552606  -0.024708
     5  C   -0.020970  -0.041737  -0.024708   0.552606   4.862335   0.517554
     6  C    0.517718  -0.015056  -0.062906  -0.024708   0.517554   4.995500
     7  C   -0.065042   0.359281  -0.064129   0.007547  -0.000104   0.009176
     8  C   -0.002251  -0.031026  -0.001552  -0.000151   0.000040  -0.000061
     9  C    0.000915   0.000308   0.000207  -0.000000   0.000002  -0.000075
    10  C    0.000308   0.000915  -0.000075   0.000002  -0.000000   0.000207
    11  C    0.000207  -0.000075  -0.000001   0.000000  -0.000000   0.000003
    12  C   -0.000000   0.000002   0.000000  -0.000000   0.000000  -0.000000
    13  C    0.000002  -0.000000  -0.000000   0.000000  -0.000000   0.000000
    14  C   -0.000075   0.000207   0.000003  -0.000000   0.000000  -0.000001
    15  C   -0.031026  -0.002251  -0.000061   0.000040  -0.000151  -0.001552
    16  C    0.359281  -0.065042   0.009176  -0.000104   0.007547  -0.064129
    17  H    0.005261  -0.040350   0.351649  -0.046287   0.004617   0.000679
    18  H    0.001012   0.003596  -0.038875   0.356761  -0.042389   0.004348
    19  H    0.003596   0.001012   0.004348  -0.042389   0.356761  -0.038875
    20  H   -0.040350   0.005261   0.000679   0.004617  -0.046287   0.351649
    21  H    0.004815  -0.031543  -0.006770   0.000257   0.000004  -0.000184
    22  H   -0.006889  -0.025921   0.002742  -0.000217   0.000031  -0.000118
    23  H   -0.000075   0.002800   0.000179   0.000004  -0.000001   0.000005
    24  H    0.000849  -0.000302   0.001859  -0.000102  -0.000008  -0.000243
    25  H    0.000001  -0.000000  -0.000000   0.000000  -0.000000   0.000000
    26  H    0.000000  -0.000000  -0.000000   0.000000  -0.000000   0.000000
    27  H   -0.000000   0.000000   0.000000  -0.000000   0.000000  -0.000000
    28  H   -0.000000   0.000001   0.000000  -0.000000   0.000000  -0.000000
    29  H   -0.000302   0.000849  -0.000243  -0.000008  -0.000102   0.001859
    30  H    0.002800  -0.000075   0.000005  -0.000001   0.000004   0.000179
    31  H   -0.031543   0.004815  -0.000184   0.000004   0.000257  -0.006770
    32  H   -0.025921  -0.006889  -0.000118   0.000031  -0.000217   0.002742
               7          8          9         10         11         12
     1  C   -0.065042  -0.002251   0.000915   0.000308   0.000207  -0.000000
     2  C    0.359281  -0.031026   0.000308   0.000915  -0.000075   0.000002
     3  C   -0.064129  -0.001552   0.000207  -0.000075  -0.000001   0.000000
     4  C    0.007547  -0.000151  -0.000000   0.000002   0.000000  -0.000000
     5  C   -0.000104   0.000040   0.000002  -0.000000  -0.000000   0.000000
     6  C    0.009176  -0.000061  -0.000075   0.000207   0.000003  -0.000000
     7  C    5.216543   0.312749  -0.031026  -0.002251  -0.000061   0.000040
     8  C    0.312749   5.216543   0.359281  -0.065042   0.009176  -0.000104
     9  C   -0.031026   0.359281   4.728861   0.535576  -0.015056  -0.041737
    10  C   -0.002251  -0.065042   0.535576   4.728861   0.517718  -0.020970
    11  C   -0.000061   0.009176  -0.015056   0.517718   4.995500   0.517554
    12  C    0.000040  -0.000104  -0.041737  -0.020970   0.517554   4.862335
    13  C   -0.000151   0.007547  -0.020970  -0.041737  -0.024708   0.552606
    14  C   -0.001552  -0.064129   0.517718  -0.015056  -0.062906  -0.024708
    15  C    0.000689  -0.015881  -0.065042   0.359281  -0.064129   0.007547
    16  C   -0.015881   0.000689  -0.002251  -0.031026  -0.001552  -0.000151
    17  H   -0.011623   0.000360   0.000001  -0.000000  -0.000000   0.000000
    18  H   -0.000180   0.000001   0.000000  -0.000000  -0.000000   0.000000
    19  H    0.000009   0.000000  -0.000000   0.000000   0.000000  -0.000000
    20  H   -0.000169   0.000001  -0.000000   0.000001   0.000000  -0.000000
    21  H    0.354801  -0.030078   0.002800  -0.000075   0.000005  -0.000001
    22  H    0.360644  -0.050278  -0.000302   0.000849  -0.000243  -0.000008
    23  H   -0.030078   0.354801  -0.031543   0.004815  -0.000184   0.000004
    24  H   -0.050278   0.360644  -0.025921  -0.006889  -0.000118   0.000031
    25  H    0.000001  -0.000169   0.005261  -0.040350   0.351649  -0.046287
    26  H    0.000000   0.000009   0.001012   0.003596  -0.038875   0.356761
    27  H    0.000001  -0.000180   0.003596   0.001012   0.004348  -0.042389
    28  H    0.000360  -0.011623  -0.040350   0.005261   0.000679   0.004617
    29  H   -0.000603   0.002259  -0.006889  -0.025921   0.002742  -0.000217
    30  H   -0.000046   0.000055   0.004815  -0.031543  -0.006770   0.000257
    31  H    0.000055  -0.000046  -0.000075   0.002800   0.000179   0.000004
    32  H    0.002259  -0.000603   0.000849  -0.000302   0.001859  -0.000102
              13         14         15         16         17         18
     1  C    0.000002  -0.000075  -0.031026   0.359281   0.005261   0.001012
     2  C   -0.000000   0.000207  -0.002251  -0.065042  -0.040350   0.003596
     3  C   -0.000000   0.000003  -0.000061   0.009176   0.351649  -0.038875
     4  C    0.000000  -0.000000   0.000040  -0.000104  -0.046287   0.356761
     5  C   -0.000000   0.000000  -0.000151   0.007547   0.004617  -0.042389
     6  C    0.000000  -0.000001  -0.001552  -0.064129   0.000679   0.004348
     7  C   -0.000151  -0.001552   0.000689  -0.015881  -0.011623  -0.000180
     8  C    0.007547  -0.064129  -0.015881   0.000689   0.000360   0.000001
     9  C   -0.020970   0.517718  -0.065042  -0.002251   0.000001   0.000000
    10  C   -0.041737  -0.015056   0.359281  -0.031026  -0.000000  -0.000000
    11  C   -0.024708  -0.062906  -0.064129  -0.001552  -0.000000  -0.000000
    12  C    0.552606  -0.024708   0.007547  -0.000151   0.000000   0.000000
    13  C    4.862335   0.517554  -0.000104   0.000040  -0.000000  -0.000000
    14  C    0.517554   4.995500   0.009176  -0.000061   0.000000   0.000000
    15  C   -0.000104   0.009176   5.216542   0.312749   0.000001   0.000000
    16  C    0.000040  -0.000061   0.312749   5.216543  -0.000169   0.000009
    17  H   -0.000000   0.000000   0.000001  -0.000169   0.614283  -0.005605
    18  H   -0.000000   0.000000   0.000000   0.000009  -0.005605   0.602720
    19  H    0.000000  -0.000000   0.000001  -0.000180  -0.000196  -0.005425
    20  H    0.000000  -0.000000   0.000360  -0.011623   0.000020  -0.000196
    21  H    0.000004   0.000179  -0.000046   0.000055   0.008448  -0.000015
    22  H   -0.000102   0.001859  -0.000603   0.002259   0.000134   0.000003
    23  H    0.000257  -0.006770   0.000055  -0.000046  -0.000083  -0.000000
    24  H   -0.000217   0.002742   0.002259  -0.000603   0.000229   0.000001
    25  H    0.004617   0.000679  -0.011623   0.000360   0.000000  -0.000000
    26  H   -0.042389   0.004348  -0.000180   0.000001  -0.000000   0.000000
    27  H    0.356761  -0.038875   0.000009   0.000000   0.000000  -0.000000
    28  H   -0.046287   0.351649  -0.000169   0.000001   0.000000   0.000000
    29  H    0.000031  -0.000118   0.360644  -0.050278   0.000003  -0.000000
    30  H    0.000004  -0.000184   0.354801  -0.030078  -0.000000   0.000000
    31  H   -0.000001   0.000005  -0.030078   0.354801   0.000003  -0.000000
    32  H   -0.000008  -0.000243  -0.050278   0.360644  -0.000004  -0.000000
              19         20         21         22         23         24
     1  C    0.003596  -0.040350   0.004815  -0.006889  -0.000075   0.000849
     2  C    0.001012   0.005261  -0.031543  -0.025921   0.002800  -0.000302
     3  C    0.004348   0.000679  -0.006770   0.002742   0.000179   0.001859
     4  C   -0.042389   0.004617   0.000257  -0.000217   0.000004  -0.000102
     5  C    0.356761  -0.046287   0.000004   0.000031  -0.000001  -0.000008
     6  C   -0.038875   0.351649  -0.000184  -0.000118   0.000005  -0.000243
     7  C    0.000009  -0.000169   0.354801   0.360644  -0.030078  -0.050278
     8  C    0.000000   0.000001  -0.030078  -0.050278   0.354801   0.360644
     9  C   -0.000000  -0.000000   0.002800  -0.000302  -0.031543  -0.025921
    10  C    0.000000   0.000001  -0.000075   0.000849   0.004815  -0.006889
    11  C    0.000000   0.000000   0.000005  -0.000243  -0.000184  -0.000118
    12  C   -0.000000  -0.000000  -0.000001  -0.000008   0.000004   0.000031
    13  C    0.000000   0.000000   0.000004  -0.000102   0.000257  -0.000217
    14  C   -0.000000  -0.000000   0.000179   0.001859  -0.006770   0.002742
    15  C    0.000001   0.000360  -0.000046  -0.000603   0.000055   0.002259
    16  C   -0.000180  -0.011623   0.000055   0.002259  -0.000046  -0.000603
    17  H   -0.000196   0.000020   0.008448   0.000134  -0.000083   0.000229
    18  H   -0.005425  -0.000196  -0.000015   0.000003  -0.000000   0.000001
    19  H    0.602721  -0.005605  -0.000000  -0.000000   0.000000  -0.000000
    20  H   -0.005605   0.614283   0.000003  -0.000004  -0.000000   0.000003
    21  H   -0.000000   0.000003   0.593261  -0.031876  -0.010546   0.002901
    22  H   -0.000000  -0.000004  -0.031876   0.578349   0.002901   0.004712
    23  H    0.000000  -0.000000  -0.010546   0.002901   0.593261  -0.031876
    24  H   -0.000000   0.000003   0.002901   0.004712  -0.031876   0.578348
    25  H    0.000000   0.000000  -0.000000   0.000003   0.000003  -0.000004
    26  H   -0.000000   0.000000   0.000000  -0.000000  -0.000000  -0.000000
    27  H    0.000000  -0.000000  -0.000000   0.000001  -0.000015   0.000003
    28  H   -0.000000   0.000000  -0.000083   0.000229   0.008448   0.000134
    29  H    0.000001   0.000229   0.000027   0.000108   0.000029   0.005206
    30  H   -0.000000  -0.000083   0.000001   0.000027  -0.000001   0.000029
    31  H   -0.000015   0.008448  -0.000001   0.000029   0.000001   0.000027
    32  H    0.000003   0.000134   0.000029   0.005206   0.000027   0.000108
              25         26         27         28         29         30
     1  C    0.000001   0.000000  -0.000000  -0.000000  -0.000302   0.002800
     2  C   -0.000000  -0.000000   0.000000   0.000001   0.000849  -0.000075
     3  C   -0.000000  -0.000000   0.000000   0.000000  -0.000243   0.000005
     4  C    0.000000   0.000000  -0.000000  -0.000000  -0.000008  -0.000001
     5  C   -0.000000  -0.000000   0.000000   0.000000  -0.000102   0.000004
     6  C    0.000000   0.000000  -0.000000  -0.000000   0.001859   0.000179
     7  C    0.000001   0.000000   0.000001   0.000360  -0.000603  -0.000046
     8  C   -0.000169   0.000009  -0.000180  -0.011623   0.002259   0.000055
     9  C    0.005261   0.001012   0.003596  -0.040350  -0.006889   0.004815
    10  C   -0.040350   0.003596   0.001012   0.005261  -0.025921  -0.031543
    11  C    0.351649  -0.038875   0.004348   0.000679   0.002742  -0.006770
    12  C   -0.046287   0.356761  -0.042389   0.004617  -0.000217   0.000257
    13  C    0.004617  -0.042389   0.356761  -0.046287   0.000031   0.000004
    14  C    0.000679   0.004348  -0.038875   0.351649  -0.000118  -0.000184
    15  C   -0.011623  -0.000180   0.000009  -0.000169   0.360644   0.354801
    16  C    0.000360   0.000001   0.000000   0.000001  -0.050278  -0.030078
    17  H    0.000000  -0.000000   0.000000   0.000000   0.000003  -0.000000
    18  H   -0.000000   0.000000  -0.000000   0.000000  -0.000000   0.000000
    19  H    0.000000  -0.000000   0.000000  -0.000000   0.000001  -0.000000
    20  H    0.000000   0.000000  -0.000000   0.000000   0.000229  -0.000083
    21  H   -0.000000   0.000000  -0.000000  -0.000083   0.000027   0.000001
    22  H    0.000003  -0.000000   0.000001   0.000229   0.000108   0.000027
    23  H    0.000003  -0.000000  -0.000015   0.008448   0.000029  -0.000001
    24  H   -0.000004  -0.000000   0.000003   0.000134   0.005206   0.000029
    25  H    0.614283  -0.005605  -0.000196   0.000020   0.000134   0.008448
    26  H   -0.005605   0.602721  -0.005425  -0.000196   0.000003  -0.000015
    27  H   -0.000196  -0.005425   0.602721  -0.005605  -0.000000  -0.000000
    28  H    0.000020  -0.000196  -0.005605   0.614283  -0.000004   0.000003
    29  H    0.000134   0.000003  -0.000000  -0.000004   0.578348  -0.031876
    30  H    0.008448  -0.000015  -0.000000   0.000003  -0.031876   0.593261
    31  H   -0.000083  -0.000000   0.000000  -0.000000   0.002901  -0.010546
    32  H    0.000229   0.000001  -0.000000   0.000003   0.004712   0.002901
              31         32
     1  C   -0.031543  -0.025921
     2  C    0.004815  -0.006889
     3  C   -0.000184  -0.000118
     4  C    0.000004   0.000031
     5  C    0.000257  -0.000217
     6  C   -0.006770   0.002742
     7  C    0.000055   0.002259
     8  C   -0.000046  -0.000603
     9  C   -0.000075   0.000849
    10  C    0.002800  -0.000302
    11  C    0.000179   0.001859
    12  C    0.000004  -0.000102
    13  C   -0.000001  -0.000008
    14  C    0.000005  -0.000243
    15  C   -0.030078  -0.050278
    16  C    0.354801   0.360644
    17  H    0.000003  -0.000004
    18  H   -0.000000  -0.000000
    19  H   -0.000015   0.000003
    20  H    0.008448   0.000134
    21  H   -0.000001   0.000029
    22  H    0.000029   0.005206
    23  H    0.000001   0.000027
    24  H    0.000027   0.000108
    25  H   -0.000083   0.000229
    26  H   -0.000000   0.000001
    27  H    0.000000  -0.000000
    28  H   -0.000000   0.000003
    29  H    0.002901   0.004712
    30  H   -0.010546   0.002901
    31  H    0.593262  -0.031876
    32  H   -0.031876   0.578348
 Mulliken charges:
               1
     1  C    0.120035
     2  C    0.120036
     3  C   -0.186941
     4  C   -0.125083
     5  C   -0.125083
     6  C   -0.186941
     7  C   -0.350980
     8  C   -0.350980
     9  C    0.120035
    10  C    0.120036
    11  C   -0.186941
    12  C   -0.125083
    13  C   -0.125083
    14  C   -0.186941
    15  C   -0.350979
    16  C   -0.350980
    17  H    0.118630
    18  H    0.124233
    19  H    0.124233
    20  H    0.118630
    21  H    0.143629
    22  H    0.156477
    23  H    0.143629
    24  H    0.156477
    25  H    0.118629
    26  H    0.124233
    27  H    0.124233
    28  H    0.118630
    29  H    0.156477
    30  H    0.143629
    31  H    0.143629
    32  H    0.156477
 Sum of Mulliken charges =  -0.00000
 Mulliken charges with hydrogens summed into heavy atoms:
               1
     1  C    0.120035
     2  C    0.120036
     3  C   -0.068312
     4  C   -0.000850
     5  C   -0.000850
     6  C   -0.068311
     7  C   -0.050874
     8  C   -0.050874
     9  C    0.120035
    10  C    0.120036
    11  C   -0.068312
    12  C   -0.000850
    13  C   -0.000850
    14  C   -0.068311
    15  C   -0.050874
    16  C   -0.050874
 Electronic spatial extent (au):  <R**2>=           3993.8876
 Charge=             -0.0000 electrons
 Dipole moment (field-independent basis, Debye):
    X=              0.0000    Y=              0.0000    Z=              0.0000  Tot=              0.0000
 Quadrupole moment (field-independent basis, Debye-Ang):
   XX=            -90.5612   YY=            -86.0182   ZZ=            -98.2346
   XY=              0.0000   XZ=             -2.6390   YZ=             -0.0000
 Traceless Quadrupole moment (field-independent basis, Debye-Ang):
   XX=              1.0434   YY=              5.5865   ZZ=             -6.6299
   XY=              0.0000   XZ=             -2.6390   YZ=             -0.0000
 Octapole moment (field-independent basis, Debye-Ang**2):
  XXX=              0.0000  YYY=             -0.0000  ZZZ=              0.0000  XYY=              0.0000
  XXY=             -0.0000  XXZ=             -0.0000  XZZ=             -0.0000  YZZ=              0.0000
  YYZ=              0.0000  XYZ=             -0.0000
 Hexadecapole moment (field-independent basis, Debye-Ang**3):
 XXXX=          -4012.6727 YYYY=           -942.9302 ZZZZ=           -217.3981 XXXY=             -0.0001
 XXXZ=            -90.2873 YYYX=              0.0001 YYYZ=             -0.0000 ZZZX=             -0.7342
 ZZZY=             -0.0000 XXYY=           -821.3536 XXZZ=           -824.5003 YYZZ=           -212.4195
 XXYZ=             -0.0000 YYXZ=             -2.3361 ZZXY=              0.0000
 N-N= 1.014447479678D+03 E-N=-3.464252049070D+03  KE= 6.153304947822D+02
 Calling FoFJK, ICntrl=      2127 FMM=F ISym2X=0 I1Cent= 0 IOpClX= 0 NMat=1 NMatS=1 NMatT=0.
 ***** Axes restored to original set *****
 -------------------------------------------------------------------
 Center     Atomic                   Forces (Hartrees/Bohr)
 Number     Number              X              Y              Z
 -------------------------------------------------------------------
      1        6          -0.000119027   -0.000241372   -0.000073426
      2        6          -0.000119983    0.000241671   -0.000073013
      3        6          -0.000172461   -0.000119980    0.000041305
      4        6           0.000120878   -0.000110860   -0.000036527
      5        6           0.000121059    0.000110713   -0.000036322
      6        6          -0.000173688    0.000118907    0.000041547
      7        6          -0.000011852    0.000292153   -0.000209994
      8        6           0.000011623    0.000291937    0.000210767
      9        6           0.000119576    0.000242273    0.000073216
     10        6           0.000119983   -0.000242731    0.000073146
     11        6           0.000173464    0.000120717   -0.000041359
     12        6          -0.000121634    0.000110510    0.000036490
     13        6          -0.000121503   -0.000110637    0.000036445
     14        6           0.000173843   -0.000119365   -0.000041388
     15        6           0.000011414   -0.000292794    0.000210367
     16        6          -0.000011743   -0.000291817   -0.000210545
     17        1           0.000020468   -0.000414599   -0.000005361
     18        1           0.000380102   -0.000250718   -0.000079859
     19        1           0.000380299    0.000250846   -0.000079919
     20        1           0.000020604    0.000415262   -0.000005396
     21        1           0.000098828   -0.000644335    0.000096992
     22        1          -0.000299636    0.000123510    0.000495752
     23        1          -0.000098898   -0.000644537   -0.000097187
     24        1           0.000299934    0.000123690   -0.000496384
     25        1          -0.000020650    0.000414659    0.000005358
     26        1          -0.000380133    0.000250663    0.000079891
     27        1          -0.000380245   -0.000250743    0.000079931
     28        1          -0.000020676   -0.000415281    0.000005322
     29        1           0.000299874   -0.000123441   -0.000495941
     30        1          -0.000098826    0.000644938   -0.000097201
     31        1           0.000098760    0.000644334    0.000097172
     32        1          -0.000299755   -0.000123576    0.000496122
 -------------------------------------------------------------------
 Cartesian Forces:  Max     0.000644938 RMS     0.000246196

 GradGradGradGradGradGradGradGradGradGradGradGradGradGradGradGradGradGrad
 Berny optimization.
 FormGI is forming the generalized inverse of G from B-inverse, IUseBI=4.
 Internal  Forces:  Max     0.000654162 RMS     0.000214457
 Search for a local minimum.
 Step number   1 out of a maximum of  192
 All quantities printed in internal units (Hartrees-Bohrs-Radians)
 Mixed Optimization -- En-DIIS/RFO-DIIS
 Second derivative matrix not updated -- first step.
 ITU=  0
     Eigenvalues ---    0.00758   0.00879   0.00890   0.00969   0.01264
     Eigenvalues ---    0.01336   0.01572   0.01584   0.01848   0.02112
     Eigenvalues ---    0.02112   0.02116   0.02116   0.02118   0.02118
     Eigenvalues ---    0.02162   0.02162   0.02167   0.02167   0.02174
     Eigenvalues ---    0.02174   0.03300   0.04267   0.04921   0.05027
     Eigenvalues ---    0.05187   0.05373   0.06396   0.06534   0.07961
     Eigenvalues ---    0.08879   0.09668   0.09679   0.09682   0.09730
     Eigenvalues ---    0.10408   0.13161   0.13365   0.16000   0.16000
     Eigenvalues ---    0.16000   0.16000   0.16000   0.16000   0.16000
     Eigenvalues ---    0.16000   0.17011   0.22000   0.22000   0.22158
     Eigenvalues ---    0.22624   0.22664   0.22988   0.24468   0.24607
     Eigenvalues ---    0.24999   0.25008   0.26233   0.29532   0.30561
     Eigenvalues ---    0.30866   0.30866   0.34112   0.34112   0.34112
     Eigenvalues ---    0.34112   0.34293   0.34293   0.34293   0.34293
     Eigenvalues ---    0.35107   0.35107   0.35107   0.35107   0.35257
     Eigenvalues ---    0.35257   0.35257   0.35257   0.39293   0.40888
     Eigenvalues ---    0.41653   0.41697   0.44684   0.44790   0.45946
     Eigenvalues ---    0.45953   0.46045   0.46045   0.46630   0.46631
 RFO step:  Lambda=-2.37387952D-05 EMin= 7.57734220D-03
 Linear search not attempted -- first point.
 Iteration  1 RMS(Cart)=  0.00111173 RMS(Int)=  0.00000041
 Iteration  2 RMS(Cart)=  0.00000058 RMS(Int)=  0.00000012
 Variable       Old X    -DE/DX   Delta X   Delta X   Delta X     New X
                                 (Linear)    (Quad)   (Total)
    R1        2.66921   0.00026   0.00000   0.00056   0.00056   2.66977
    R2        2.64714   0.00044   0.00000   0.00096   0.00096   2.64810
    R3        2.86270   0.00034   0.00000   0.00110   0.00110   2.86379
    R4        2.64713   0.00045   0.00000   0.00096   0.00096   2.64810
    R5        2.86270   0.00034   0.00000   0.00110   0.00110   2.86379
    R6        2.63572   0.00058   0.00000   0.00126   0.00126   2.63697
    R7        2.05501   0.00041   0.00000   0.00118   0.00118   2.05619
    R8        2.63207   0.00062   0.00000   0.00136   0.00136   2.63343
    R9        2.05260   0.00046   0.00000   0.00131   0.00131   2.05391
   R10        2.63572   0.00058   0.00000   0.00126   0.00126   2.63697
   R11        2.05260   0.00046   0.00000   0.00131   0.00131   2.05391
   R12        2.05501   0.00042   0.00000   0.00118   0.00118   2.05619
   R13        2.96172   0.00018   0.00000   0.00069   0.00069   2.96242
   R14        2.06838   0.00065   0.00000   0.00191   0.00191   2.07029
   R15        2.07142   0.00059   0.00000   0.00172   0.00172   2.07314
   R16        2.86270   0.00034   0.00000   0.00110   0.00110   2.86379
   R17        2.06838   0.00065   0.00000   0.00191   0.00191   2.07029
   R18        2.07141   0.00059   0.00000   0.00172   0.00172   2.07314
   R19        2.66921   0.00026   0.00000   0.00056   0.00056   2.66977
   R20        2.64713   0.00045   0.00000   0.00096   0.00096   2.64810
   R21        2.64713   0.00045   0.00000   0.00096   0.00096   2.64810
   R22        2.86270   0.00034   0.00000   0.00110   0.00110   2.86379
   R23        2.63572   0.00058   0.00000   0.00126   0.00126   2.63697
   R24        2.05501   0.00041   0.00000   0.00118   0.00118   2.05619
   R25        2.63207   0.00062   0.00000   0.00136   0.00136   2.63343
   R26        2.05260   0.00046   0.00000   0.00131   0.00131   2.05391
   R27        2.63572   0.00058   0.00000   0.00126   0.00126   2.63697
   R28        2.05260   0.00046   0.00000   0.00131   0.00131   2.05391
   R29        2.05501   0.00042   0.00000   0.00118   0.00118   2.05619
   R30        2.96172   0.00018   0.00000   0.00069   0.00069   2.96242
   R31        2.07142   0.00059   0.00000   0.00172   0.00172   2.07314
   R32        2.06838   0.00065   0.00000   0.00191   0.00191   2.07029
   R33        2.06838   0.00065   0.00000   0.00191   0.00191   2.07029
   R34        2.07142   0.00059   0.00000   0.00172   0.00172   2.07314
    A1        2.07387   0.00006   0.00000   0.00013   0.00013   2.07400
    A2        2.12919   0.00003   0.00000   0.00018   0.00018   2.12937
    A3        2.08009  -0.00009   0.00000  -0.00031  -0.00031   2.07978
    A4        2.07387   0.00006   0.00000   0.00013   0.00013   2.07400
    A5        2.12919   0.00003   0.00000   0.00018   0.00018   2.12937
    A6        2.08009  -0.00009   0.00000  -0.00031  -0.00031   2.07978
    A7        2.12499  -0.00001   0.00000  -0.00002  -0.00002   2.12497
    A8        2.07353   0.00003   0.00000   0.00015   0.00015   2.07368
    A9        2.08466  -0.00002   0.00000  -0.00012  -0.00012   2.08453
   A10        2.08432  -0.00005   0.00000  -0.00011  -0.00011   2.08421
   A11        2.09531   0.00001   0.00000  -0.00007  -0.00007   2.09524
   A12        2.10354   0.00004   0.00000   0.00017   0.00017   2.10372
   A13        2.08432  -0.00005   0.00000  -0.00011  -0.00011   2.08421
   A14        2.10354   0.00004   0.00000   0.00017   0.00017   2.10372
   A15        2.09531   0.00001   0.00000  -0.00007  -0.00007   2.09524
   A16        2.12499  -0.00001   0.00000  -0.00002  -0.00002   2.12497
   A17        2.07353   0.00003   0.00000   0.00015   0.00015   2.07368
   A18        2.08466  -0.00002   0.00000  -0.00013  -0.00013   2.08453
   A19        2.00360  -0.00011   0.00000  -0.00077  -0.00077   2.00284
   A20        1.88546   0.00010   0.00000   0.00053   0.00053   1.88600
   A21        1.92755   0.00006   0.00000   0.00090   0.00090   1.92845
   A22        1.89297  -0.00007   0.00000  -0.00070  -0.00070   1.89227
   A23        1.89865   0.00005   0.00000   0.00024   0.00024   1.89889
   A24        1.84901  -0.00003   0.00000  -0.00020  -0.00020   1.84881
   A25        2.00360  -0.00011   0.00000  -0.00077  -0.00077   2.00284
   A26        1.89297  -0.00007   0.00000  -0.00070  -0.00070   1.89227
   A27        1.89865   0.00005   0.00000   0.00024   0.00024   1.89889
   A28        1.88546   0.00010   0.00000   0.00053   0.00053   1.88600
   A29        1.92755   0.00006   0.00000   0.00090   0.00090   1.92845
   A30        1.84901  -0.00003   0.00000  -0.00020  -0.00020   1.84881
   A31        2.12919   0.00003   0.00000   0.00018   0.00018   2.12937
   A32        2.08009  -0.00009   0.00000  -0.00031  -0.00031   2.07978
   A33        2.07387   0.00006   0.00000   0.00013   0.00013   2.07400
   A34        2.07387   0.00006   0.00000   0.00013   0.00013   2.07400
   A35        2.12919   0.00003   0.00000   0.00018   0.00018   2.12937
   A36        2.08010  -0.00009   0.00000  -0.00031  -0.00031   2.07978
   A37        2.12499  -0.00001   0.00000  -0.00002  -0.00002   2.12497
   A38        2.07353   0.00003   0.00000   0.00015   0.00015   2.07368
   A39        2.08466  -0.00002   0.00000  -0.00013  -0.00013   2.08453
   A40        2.08432  -0.00005   0.00000  -0.00011  -0.00011   2.08421
   A41        2.09531   0.00001   0.00000  -0.00007  -0.00007   2.09524
   A42        2.10354   0.00004   0.00000   0.00017   0.00017   2.10372
   A43        2.08432  -0.00005   0.00000  -0.00011  -0.00011   2.08421
   A44        2.10354   0.00004   0.00000   0.00017   0.00017   2.10372
   A45        2.09531   0.00001   0.00000  -0.00007  -0.00007   2.09524
   A46        2.12499  -0.00001   0.00000  -0.00002  -0.00002   2.12497
   A47        2.07353   0.00003   0.00000   0.00015   0.00015   2.07368
   A48        2.08466  -0.00002   0.00000  -0.00013  -0.00013   2.08453
   A49        2.00360  -0.00011   0.00000  -0.00077  -0.00077   2.00284
   A50        1.92755   0.00006   0.00000   0.00090   0.00090   1.92845
   A51        1.88546   0.00010   0.00000   0.00053   0.00053   1.88600
   A52        1.89865   0.00005   0.00000   0.00024   0.00024   1.89889
   A53        1.89297  -0.00007   0.00000  -0.00070  -0.00070   1.89227
   A54        1.84901  -0.00003   0.00000  -0.00020  -0.00020   1.84881
   A55        2.00360  -0.00011   0.00000  -0.00077  -0.00077   2.00284
   A56        1.88546   0.00010   0.00000   0.00053   0.00053   1.88600
   A57        1.92755   0.00006   0.00000   0.00090   0.00090   1.92845
   A58        1.89297  -0.00007   0.00000  -0.00070  -0.00070   1.89227
   A59        1.89865   0.00005   0.00000   0.00024   0.00024   1.89889
   A60        1.84901  -0.00003   0.00000  -0.00020  -0.00020   1.84881
    D1        0.00000  -0.00000   0.00000  -0.00000  -0.00000  -0.00000
    D2       -3.13256  -0.00001   0.00000   0.00026   0.00026  -3.13230
    D3        3.13256   0.00001   0.00000  -0.00026  -0.00026   3.13230
    D4        0.00000   0.00000   0.00000   0.00000   0.00000   0.00000
    D5        0.00424   0.00001   0.00000   0.00002   0.00002   0.00426
    D6       -3.13334   0.00000   0.00000  -0.00014  -0.00014  -3.13348
    D7       -3.12857  -0.00001   0.00000   0.00027   0.00027  -3.12830
    D8        0.01702  -0.00001   0.00000   0.00011   0.00011   0.01714
    D9       -1.27800  -0.00007   0.00000  -0.00049  -0.00049  -1.27849
   D10        2.89084   0.00001   0.00000   0.00052   0.00052   2.89136
   D11        0.87607  -0.00004   0.00000  -0.00003  -0.00003   0.87604
   D12        1.85453  -0.00005   0.00000  -0.00075  -0.00075   1.85378
   D13       -0.25981   0.00003   0.00000   0.00026   0.00026  -0.25955
   D14       -2.27459  -0.00003   0.00000  -0.00029  -0.00029  -2.27488
   D15       -0.00425  -0.00001   0.00000  -0.00002  -0.00002  -0.00426
   D16        3.13334  -0.00000   0.00000   0.00014   0.00014   3.13348
   D17        3.12857   0.00001   0.00000  -0.00027  -0.00027   3.12830
   D18       -0.01702   0.00001   0.00000  -0.00011  -0.00011  -0.01714
   D19        1.27800   0.00007   0.00000   0.00049   0.00049   1.27849
   D20       -2.89084  -0.00001   0.00000  -0.00052  -0.00052  -2.89136
   D21       -0.87607   0.00004   0.00000   0.00003   0.00003  -0.87604
   D22       -1.85453   0.00006   0.00000   0.00075   0.00075  -1.85378
   D23        0.25982  -0.00003   0.00000  -0.00026  -0.00026   0.25956
   D24        2.27459   0.00003   0.00000   0.00029   0.00029   2.27488
   D25        0.00427   0.00001   0.00000   0.00002   0.00002   0.00429
   D26        3.14076   0.00000   0.00000  -0.00001  -0.00001   3.14074
   D27       -3.13329   0.00000   0.00000  -0.00014  -0.00014  -3.13343
   D28        0.00319  -0.00000   0.00000  -0.00017  -0.00017   0.00302
   D29        0.00000  -0.00000   0.00000  -0.00000  -0.00000  -0.00000
   D30        3.13646  -0.00000   0.00000  -0.00003  -0.00003   3.13643
   D31       -3.13646   0.00000   0.00000   0.00003   0.00003  -3.13643
   D32       -0.00000   0.00000   0.00000   0.00000   0.00000   0.00000
   D33       -0.00427  -0.00001   0.00000  -0.00002  -0.00002  -0.00429
   D34        3.13329  -0.00000   0.00000   0.00014   0.00014   3.13343
   D35       -3.14076  -0.00000   0.00000   0.00001   0.00001  -3.14074
   D36       -0.00319   0.00000   0.00000   0.00017   0.00017  -0.00302
   D37       -1.89518  -0.00001   0.00000  -0.00010  -0.00010  -1.89528
   D38        2.27777  -0.00001   0.00000   0.00024   0.00024   2.27801
   D39        0.27423   0.00003   0.00000   0.00072   0.00072   0.27495
   D40        2.27777  -0.00001   0.00000   0.00024   0.00024   2.27801
   D41        0.16754  -0.00002   0.00000   0.00058   0.00058   0.16811
   D42       -1.83600   0.00002   0.00000   0.00106   0.00106  -1.83494
   D43        0.27423   0.00003   0.00000   0.00072   0.00072   0.27495
   D44       -1.83600   0.00002   0.00000   0.00106   0.00106  -1.83494
   D45        2.44365   0.00006   0.00000   0.00154   0.00154   2.44519
   D46        1.27800   0.00007   0.00000   0.00049   0.00049   1.27849
   D47       -1.85453   0.00006   0.00000   0.00075   0.00075  -1.85378
   D48       -2.89084  -0.00001   0.00000  -0.00052  -0.00052  -2.89136
   D49        0.25981  -0.00003   0.00000  -0.00026  -0.00026   0.25955
   D50       -0.87607   0.00004   0.00000   0.00003   0.00003  -0.87604
   D51        2.27459   0.00003   0.00000   0.00029   0.00029   2.27488
   D52       -3.13256  -0.00001   0.00000   0.00026   0.00026  -3.13230
   D53        0.00000  -0.00000   0.00000  -0.00000  -0.00000   0.00000
   D54        0.00000   0.00000   0.00000   0.00000   0.00000   0.00000
   D55        3.13256   0.00001   0.00000  -0.00026  -0.00026   3.13230
   D56        3.12857   0.00001   0.00000  -0.00027  -0.00027   3.12830
   D57       -0.01702   0.00001   0.00000  -0.00012  -0.00012  -0.01714
   D58       -0.00425  -0.00001   0.00000  -0.00002  -0.00002  -0.00426
   D59        3.13334  -0.00000   0.00000   0.00014   0.00014   3.13348
   D60        0.00425   0.00001   0.00000   0.00002   0.00002   0.00426
   D61       -3.13334   0.00000   0.00000  -0.00014  -0.00014  -3.13348
   D62       -3.12857  -0.00001   0.00000   0.00027   0.00027  -3.12831
   D63        0.01702  -0.00001   0.00000   0.00011   0.00011   0.01714
   D64       -1.27800  -0.00007   0.00000  -0.00049  -0.00049  -1.27849
   D65        0.87607  -0.00004   0.00000  -0.00003  -0.00003   0.87604
   D66        2.89084   0.00001   0.00000   0.00052   0.00052   2.89136
   D67        1.85453  -0.00006   0.00000  -0.00075  -0.00075   1.85378
   D68       -2.27459  -0.00003   0.00000  -0.00029  -0.00029  -2.27488
   D69       -0.25981   0.00003   0.00000   0.00026   0.00026  -0.25955
   D70       -0.00427  -0.00001   0.00000  -0.00002  -0.00002  -0.00429
   D71       -3.14076  -0.00000   0.00000   0.00001   0.00001  -3.14074
   D72        3.13329  -0.00000   0.00000   0.00014   0.00014   3.13343
   D73       -0.00319   0.00000   0.00000   0.00017   0.00017  -0.00302
   D74       -0.00000   0.00000   0.00000   0.00000   0.00000   0.00000
   D75       -3.13646   0.00000   0.00000   0.00003   0.00003  -3.13643
   D76        3.13646  -0.00000   0.00000  -0.00003  -0.00003   3.13643
   D77        0.00000  -0.00000   0.00000  -0.00000  -0.00000   0.00000
   D78        0.00427   0.00001   0.00000   0.00002   0.00002   0.00429
   D79       -3.13329   0.00000   0.00000  -0.00014  -0.00014  -3.13343
   D80        3.14076   0.00000   0.00000  -0.00001  -0.00001   3.14074
   D81        0.00319  -0.00000   0.00000  -0.00017  -0.00017   0.00302
   D82        1.89518   0.00001   0.00000   0.00010   0.00010   1.89528
   D83       -2.27777   0.00001   0.00000  -0.00024  -0.00024  -2.27801
   D84       -0.27424  -0.00003   0.00000  -0.00072  -0.00072  -0.27495
   D85       -0.27423  -0.00003   0.00000  -0.00072  -0.00072  -0.27495
   D86        1.83600  -0.00002   0.00000  -0.00106  -0.00106   1.83494
   D87       -2.44365  -0.00006   0.00000  -0.00154  -0.00154  -2.44519
   D88       -2.27777   0.00001   0.00000  -0.00024  -0.00024  -2.27801
   D89       -0.16754   0.00002   0.00000  -0.00057  -0.00057  -0.16811
   D90        1.83600  -0.00002   0.00000  -0.00106  -0.00106   1.83494
         Item               Value     Threshold  Converged?
 Maximum Force            0.000654     0.000450     NO 
 RMS     Force            0.000214     0.000300     YES
 Maximum Displacement     0.003503     0.001800     NO 
 RMS     Displacement     0.001112     0.001200     YES
 Predicted change in Energy=-1.186948D-05
 GradGradGradGradGradGradGradGradGradGradGradGradGradGradGradGradGradGrad

                          Input orientation:                          
 ---------------------------------------------------------------------
 Center     Atomic      Atomic             Coordinates (Angstroms)
 Number     Number       Type             X           Y           Z
 ---------------------------------------------------------------------
      1          6           0        1.776590    0.706391    0.323131
      2          6           0        1.776590   -0.706391    0.323131
      3          6           0        2.975558   -1.382150    0.059501
      4          6           0        4.161618   -0.696777   -0.206471
      5          6           0        4.161618    0.696776   -0.206471
      6          6           0        2.975558    1.382149    0.059500
      7          6           0        0.518937   -1.509544    0.587437
      8          6           0       -0.518937   -1.509544   -0.587435
      9          6           0       -1.776589   -0.706390   -0.323130
     10          6           0       -1.776589    0.706391   -0.323130
     11          6           0       -2.975558    1.382150   -0.059500
     12          6           0       -4.161618    0.696776    0.206470
     13          6           0       -4.161618   -0.696776    0.206469
     14          6           0       -2.975558   -1.382150   -0.059501
     15          6           0       -0.518937    1.509545   -0.587435
     16          6           0        0.518938    1.509544    0.587436
     17          1           0        2.976896   -2.470213    0.067127
     18          1           0        5.076138   -1.248969   -0.406595
     19          1           0        5.076138    1.248968   -0.406596
[...]
 Alpha virt. eigenvalues --    1.54588   1.58449   1.60153   1.69698   1.74918
 Alpha virt. eigenvalues --    1.78022   1.79000   1.81217   1.81783   1.82731
 Alpha virt. eigenvalues --    1.82958   1.85701   1.87532   1.87876   1.88163
 Alpha virt. eigenvalues --    1.88966   1.90322   1.91993   1.92924   1.93005
 Alpha virt. eigenvalues --    1.96843   1.97782   2.00203   2.04123   2.04723
 Alpha virt. eigenvalues --    2.04866   2.05488   2.08925   2.08998   2.10955
 Alpha virt. eigenvalues --    2.11732   2.17537   2.17565   2.22346   2.22591
 Alpha virt. eigenvalues --    2.23706   2.26365   2.26608   2.27741   2.27753
 Alpha virt. eigenvalues --    2.29318   2.30113   2.33117   2.33604   2.34946
 Alpha virt. eigenvalues --    2.35996   2.38447   2.40437   2.41348   2.49371
 Alpha virt. eigenvalues --    2.49549   2.51775   2.54853   2.58504   2.62130
 Alpha virt. eigenvalues --    2.62760   2.63451   2.66109   2.66704   2.70393
 Alpha virt. eigenvalues --    2.71410   2.75958   2.76320   2.77578   2.78169
 Alpha virt. eigenvalues --    2.78418   2.78789   2.78981   2.81645   2.96624
 Alpha virt. eigenvalues --    2.98657   3.08882   3.10326   3.41923   3.42197
          Condensed to atoms (all electrons):
               1          2          3          4          5          6
     1  C    4.729018   0.535545  -0.015173  -0.041581  -0.021062   0.517620
     2  C    0.535545   4.729018   0.517620  -0.021062  -0.041581  -0.015173
     3  C   -0.015173   0.517620   4.995481   0.517442  -0.024789  -0.062656
     4  C   -0.041581  -0.021062   0.517442   4.862818   0.552323  -0.024789
     5  C   -0.021062  -0.041581  -0.024789   0.552323   4.862818   0.517442
     6  C    0.517620  -0.015173  -0.062656  -0.024789   0.517442   4.995481
     7  C   -0.064870   0.359048  -0.063950   0.007513  -0.000103   0.009130
     8  C   -0.002249  -0.031092  -0.001559  -0.000151   0.000039  -0.000061
     9  C    0.000918   0.000304   0.000207  -0.000000   0.000002  -0.000075
    10  C    0.000304   0.000918  -0.000075   0.000002  -0.000000   0.000207
    11  C    0.000207  -0.000075  -0.000001   0.000000  -0.000000   0.000003
    12  C   -0.000000   0.000002   0.000000  -0.000000   0.000000  -0.000000
    13  C    0.000002  -0.000000  -0.000000   0.000000  -0.000000   0.000000
    14  C   -0.000075   0.000207   0.000003  -0.000000   0.000000  -0.000001
    15  C   -0.031092  -0.002249  -0.000061   0.000039  -0.000151  -0.001559
    16  C    0.359048  -0.064870   0.009130  -0.000103   0.007513  -0.063950
    17  H    0.005236  -0.040281   0.351616  -0.046178   0.004597   0.000675
    18  H    0.001005   0.003581  -0.038793   0.356692  -0.042287   0.004327
    19  H    0.003581   0.001005   0.004327  -0.042287   0.356692  -0.038793
    20  H   -0.040281   0.005236   0.000675   0.004597  -0.046178   0.351616
    21  H    0.004785  -0.031542  -0.006732   0.000257   0.000004  -0.000183
    22  H   -0.006838  -0.025877   0.002727  -0.000216   0.000030  -0.000117
    23  H   -0.000074   0.002805   0.000179   0.000004  -0.000001   0.000004
    24  H    0.000848  -0.000311   0.001858  -0.000101  -0.000008  -0.000242
    25  H    0.000001  -0.000000  -0.000000   0.000000  -0.000000   0.000000
    26  H    0.000000  -0.000000  -0.000000   0.000000  -0.000000   0.000000
    27  H   -0.000000   0.000000   0.000000  -0.000000   0.000000  -0.000000
    28  H   -0.000000   0.000001   0.000000  -0.000000   0.000000  -0.000000
    29  H   -0.000312   0.000848  -0.000242  -0.000008  -0.000101   0.001858
    30  H    0.002805  -0.000074   0.000004  -0.000001   0.000004   0.000179
    31  H   -0.031542   0.004785  -0.000183   0.000004   0.000257  -0.006732
    32  H   -0.025877  -0.006838  -0.000117   0.000030  -0.000216   0.002727
               7          8          9         10         11         12
     1  C   -0.064870  -0.002249   0.000918   0.000304   0.000207  -0.000000
     2  C    0.359048  -0.031092   0.000304   0.000918  -0.000075   0.000002
     3  C   -0.063950  -0.001559   0.000207  -0.000075  -0.000001   0.000000
     4  C    0.007513  -0.000151  -0.000000   0.000002   0.000000  -0.000000
     5  C   -0.000103   0.000039   0.000002  -0.000000  -0.000000   0.000000
     6  C    0.009130  -0.000061  -0.000075   0.000207   0.000003  -0.000000
     7  C    5.216604   0.312586  -0.031092  -0.002249  -0.000061   0.000039
     8  C    0.312586   5.216604   0.359048  -0.064870   0.009130  -0.000103
     9  C   -0.031092   0.359048   4.729018   0.535544  -0.015173  -0.041581
    10  C   -0.002249  -0.064870   0.535544   4.729019   0.517620  -0.021062
    11  C   -0.000061   0.009130  -0.015173   0.517620   4.995481   0.517442
    12  C    0.000039  -0.000103  -0.041581  -0.021062   0.517442   4.862818
    13  C   -0.000151   0.007513  -0.021062  -0.041581  -0.024789   0.552323
    14  C   -0.001559  -0.063950   0.517620  -0.015173  -0.062656  -0.024789
    15  C    0.000698  -0.015829  -0.064870   0.359048  -0.063950   0.007513
    16  C   -0.015829   0.000698  -0.002249  -0.031092  -0.001559  -0.000151
    17  H   -0.011569   0.000359   0.000001  -0.000000  -0.000000   0.000000
    18  H   -0.000179   0.000001   0.000000  -0.000000  -0.000000   0.000000
    19  H    0.000009   0.000000  -0.000000   0.000000   0.000000  -0.000000
    20  H   -0.000168   0.000001  -0.000000   0.000001   0.000000  -0.000000
    21  H    0.354790  -0.030131   0.002804  -0.000074   0.000004  -0.000001
    22  H    0.360583  -0.050179  -0.000311   0.000848  -0.000242  -0.000008
    23  H   -0.030131   0.354790  -0.031542   0.004785  -0.000183   0.000004
    24  H   -0.050179   0.360583  -0.025877  -0.006838  -0.000117   0.000030
    25  H    0.000001  -0.000168   0.005236  -0.040281   0.351616  -0.046178
    26  H    0.000000   0.000009   0.001005   0.003581  -0.038793   0.356692
    27  H    0.000001  -0.000179   0.003581   0.001005   0.004327  -0.042287
    28  H    0.000359  -0.011569  -0.040281   0.005236   0.000675   0.004597
    29  H   -0.000597   0.002245  -0.006838  -0.025877   0.002727  -0.000216
    30  H   -0.000046   0.000055   0.004785  -0.031542  -0.006732   0.000257
    31  H    0.000055  -0.000046  -0.000074   0.002805   0.000179   0.000004
    32  H    0.002245  -0.000597   0.000848  -0.000312   0.001858  -0.000101
              13         14         15         16         17         18
     1  C    0.000002  -0.000075  -0.031092   0.359048   0.005236   0.001005
     2  C   -0.000000   0.000207  -0.002249  -0.064870  -0.040281   0.003581
     3  C   -0.000000   0.000003  -0.000061   0.009130   0.351616  -0.038793
     4  C    0.000000  -0.000000   0.000039  -0.000103  -0.046178   0.356692
     5  C   -0.000000   0.000000  -0.000151   0.007513   0.004597  -0.042287
     6  C    0.000000  -0.000001  -0.001559  -0.063950   0.000675   0.004327
     7  C   -0.000151  -0.001559   0.000698  -0.015829  -0.011569  -0.000179
     8  C    0.007513  -0.063950  -0.015829   0.000698   0.000359   0.000001
     9  C   -0.021062   0.517620  -0.064870  -0.002249   0.000001   0.000000
    10  C   -0.041581  -0.015173   0.359048  -0.031092  -0.000000  -0.000000
    11  C   -0.024789  -0.062656  -0.063950  -0.001559  -0.000000  -0.000000
    12  C    0.552323  -0.024789   0.007513  -0.000151   0.000000   0.000000
    13  C    4.862818   0.517442  -0.000103   0.000039  -0.000000  -0.000000
    14  C    0.517442   4.995481   0.009130  -0.000061   0.000000   0.000000
    15  C   -0.000103   0.009130   5.216604   0.312586   0.000001   0.000000
    16  C    0.000039  -0.000061   0.312586   5.216604  -0.000168   0.000009
    17  H   -0.000000   0.000000   0.000001  -0.000168   0.614001  -0.005574
    18  H   -0.000000   0.000000   0.000000   0.000009  -0.005574   0.602466
    19  H    0.000000  -0.000000   0.000001  -0.000179  -0.000195  -0.005389
    20  H    0.000000  -0.000000   0.000359  -0.011569   0.000019  -0.000195
    21  H    0.000004   0.000179  -0.000046   0.000055   0.008421  -0.000015
    22  H   -0.000101   0.001858  -0.000597   0.002245   0.000133   0.000003
    23  H    0.000257  -0.006732   0.000055  -0.000046  -0.000083  -0.000000
    24  H   -0.000216   0.002727   0.002245  -0.000597   0.000228   0.000001
    25  H    0.004597   0.000675  -0.011569   0.000359   0.000000  -0.000000
    26  H   -0.042287   0.004327  -0.000179   0.000001  -0.000000   0.000000
    27  H    0.356692  -0.038793   0.000009   0.000000   0.000000  -0.000000
    28  H   -0.046178   0.351616  -0.000168   0.000001   0.000000   0.000000
    29  H    0.000030  -0.000117   0.360583  -0.050179   0.000003  -0.000000
    30  H    0.000004  -0.000183   0.354790  -0.030131  -0.000000   0.000000
    31  H   -0.000001   0.000004  -0.030131   0.354790   0.000003  -0.000000
    32  H   -0.000008  -0.000242  -0.050179   0.360583  -0.000004  -0.000000
              19         20         21         22         23         24
     1  C    0.003581  -0.040281   0.004785  -0.006838  -0.000074   0.000848
     2  C    0.001005   0.005236  -0.031542  -0.025877   0.002805  -0.000311
     3  C    0.004327   0.000675  -0.006732   0.002727   0.000179   0.001858
     4  C   -0.042287   0.004597   0.000257  -0.000216   0.000004  -0.000101
     5  C    0.356692  -0.046178   0.000004   0.000030  -0.000001  -0.000008
     6  C   -0.038793   0.351616  -0.000183  -0.000117   0.000004  -0.000242
     7  C    0.000009  -0.000168   0.354790   0.360583  -0.030131  -0.050179
     8  C    0.000000   0.000001  -0.030131  -0.050179   0.354790   0.360583
     9  C   -0.000000  -0.000000   0.002804  -0.000311  -0.031542  -0.025877
    10  C    0.000000   0.000001  -0.000074   0.000848   0.004785  -0.006838
    11  C    0.000000   0.000000   0.000004  -0.000242  -0.000183  -0.000117
    12  C   -0.000000  -0.000000  -0.000001  -0.000008   0.000004   0.000030
    13  C    0.000000   0.000000   0.000004  -0.000101   0.000257  -0.000216
    14  C   -0.000000  -0.000000   0.000179   0.001858  -0.006732   0.002727
    15  C    0.000001   0.000359  -0.000046  -0.000597   0.000055   0.002245
    16  C   -0.000179  -0.011569   0.000055   0.002245  -0.000046  -0.000597
    17  H   -0.000195   0.000019   0.008421   0.000133  -0.000083   0.000228
    18  H   -0.005389  -0.000195  -0.000015   0.000003  -0.000000   0.000001
    19  H    0.602466  -0.005574  -0.000000  -0.000000   0.000000  -0.000000
    20  H   -0.005574   0.614001   0.000003  -0.000004  -0.000000   0.000003
    21  H   -0.000000   0.000003   0.593426  -0.031851  -0.010544   0.002896
    22  H   -0.000000  -0.000004  -0.031851   0.578364   0.002896   0.004692
    23  H    0.000000  -0.000000  -0.010544   0.002896   0.593426  -0.031851
    24  H   -0.000000   0.000003   0.002896   0.004692  -0.031851   0.578364
    25  H    0.000000   0.000000  -0.000000   0.000003   0.000003  -0.000004
    26  H   -0.000000   0.000000   0.000000  -0.000000  -0.000000  -0.000000
    27  H    0.000000  -0.000000  -0.000000   0.000001  -0.000015   0.000003
    28  H   -0.000000   0.000000  -0.000083   0.000228   0.008421   0.000133
    29  H    0.000001   0.000228   0.000027   0.000107   0.000029   0.005181
    30  H   -0.000000  -0.000083   0.000001   0.000027  -0.000001   0.000029
    31  H   -0.000015   0.008421  -0.000001   0.000029   0.000001   0.000027
    32  H    0.000003   0.000133   0.000029   0.005181   0.000027   0.000107
              25         26         27         28         29         30
     1  C    0.000001   0.000000  -0.000000  -0.000000  -0.000312   0.002805
     2  C   -0.000000  -0.000000   0.000000   0.000001   0.000848  -0.000074
     3  C   -0.000000  -0.000000   0.000000   0.000000  -0.000242   0.000004
     4  C    0.000000   0.000000  -0.000000  -0.000000  -0.000008  -0.000001
     5  C   -0.000000  -0.000000   0.000000   0.000000  -0.000101   0.000004
     6  C    0.000000   0.000000  -0.000000  -0.000000   0.001858   0.000179
     7  C    0.000001   0.000000   0.000001   0.000359  -0.000597  -0.000046
     8  C   -0.000168   0.000009  -0.000179  -0.011569   0.002245   0.000055
     9  C    0.005236   0.001005   0.003581  -0.040281  -0.006838   0.004785
    10  C   -0.040281   0.003581   0.001005   0.005236  -0.025877  -0.031542
    11  C    0.351616  -0.038793   0.004327   0.000675   0.002727  -0.006732
    12  C   -0.046178   0.356692  -0.042287   0.004597  -0.000216   0.000257
    13  C    0.004597  -0.042287   0.356692  -0.046178   0.000030   0.000004
    14  C    0.000675   0.004327  -0.038793   0.351616  -0.000117  -0.000183
    15  C   -0.011569  -0.000179   0.000009  -0.000168   0.360583   0.354790
    16  C    0.000359   0.000001   0.000000   0.000001  -0.050179  -0.030131
    17  H    0.000000  -0.000000   0.000000   0.000000   0.000003  -0.000000
    18  H   -0.000000   0.000000  -0.000000   0.000000  -0.000000   0.000000
    19  H    0.000000  -0.000000   0.000000  -0.000000   0.000001  -0.000000
    20  H    0.000000   0.000000  -0.000000   0.000000   0.000228  -0.000083
    21  H   -0.000000   0.000000  -0.000000  -0.000083   0.000027   0.000001
    22  H    0.000003  -0.000000   0.000001   0.000228   0.000107   0.000027
    23  H    0.000003  -0.000000  -0.000015   0.008421   0.000029  -0.000001
    24  H   -0.000004  -0.000000   0.000003   0.000133   0.005181   0.000029
    25  H    0.614001  -0.005574  -0.000195   0.000019   0.000133   0.008421
    26  H   -0.005574   0.602466  -0.005389  -0.000195   0.000003  -0.000015
    27  H   -0.000195  -0.005389   0.602466  -0.005574  -0.000000  -0.000000
    28  H    0.000019  -0.000195  -0.005574   0.614001  -0.000004   0.000003
    29  H    0.000133   0.000003  -0.000000  -0.000004   0.578364  -0.031851
    30  H    0.008421  -0.000015  -0.000000   0.000003  -0.031851   0.593426
    31  H   -0.000083  -0.000000   0.000000  -0.000000   0.002896  -0.010544
    32  H    0.000228   0.000001  -0.000000   0.000003   0.004692   0.002896
              31         32
     1  C   -0.031542  -0.025877
     2  C    0.004785  -0.006838
     3  C   -0.000183  -0.000117
     4  C    0.000004   0.000030
     5  C    0.000257  -0.000216
     6  C   -0.006732   0.002727
     7  C    0.000055   0.002245
     8  C   -0.000046  -0.000597
     9  C   -0.000074   0.000848
    10  C    0.002805  -0.000312
    11  C    0.000179   0.001858
    12  C    0.000004  -0.000101
    13  C   -0.000001  -0.000008
    14  C    0.000004  -0.000242
    15  C   -0.030131  -0.050179
    16  C    0.354790   0.360583
    17  H    0.000003  -0.000004
    18  H   -0.000000  -0.000000
    19  H   -0.000015   0.000003
    20  H    0.008421   0.000133
    21  H   -0.000001   0.000029
    22  H    0.000029   0.005181
    23  H    0.000001   0.000027
    24  H    0.000027   0.000107
    25  H   -0.000083   0.000228
    26  H   -0.000000   0.000001
    27  H    0.000000  -0.000000
    28  H   -0.000000   0.000003
    29  H    0.002896   0.004692
    30  H   -0.010544   0.002896
    31  H    0.593426  -0.031851
    32  H   -0.031851   0.578364
 Mulliken charges:
               1
     1  C    0.120104
     2  C    0.120104
     3  C   -0.186942
     4  C   -0.125244
     5  C   -0.125244
     6  C   -0.186942
     7  C   -0.350927
     8  C   -0.350927
     9  C    0.120104
    10  C    0.120104
    11  C   -0.186942
    12  C   -0.125244
    13  C   -0.125244
    14  C   -0.186942
    15  C   -0.350927
    16  C   -0.350927
    17  H    0.118758
    18  H    0.124347
    19  H    0.124347
    20  H    0.118758
    21  H    0.143518
    22  H    0.156386
    23  H    0.143518
    24  H    0.156386
    25  H    0.118758
    26  H    0.124347
    27  H    0.124347
    28  H    0.118758
    29  H    0.156386
    30  H    0.143518
    31  H    0.143518
    32  H    0.156386
 Sum of Mulliken charges =  -0.00000
 Mulliken charges with hydrogens summed into heavy atoms:
               1
     1  C    0.120104
     2  C    0.120104
     3  C   -0.068184
     4  C   -0.000897
     5  C   -0.000897
     6  C   -0.068184
     7  C   -0.051023
     8  C   -0.051023
     9  C    0.120104
    10  C    0.120104
    11  C   -0.068184
    12  C   -0.000897
    13  C   -0.000897
    14  C   -0.068184
    15  C   -0.051023
    16  C   -0.051023
 Electronic spatial extent (au):  <R**2>=           3995.5473
 Charge=              0.0000 electrons
 Dipole moment (field-independent basis, Debye):
    X=              0.0000    Y=              0.0000    Z=             -0.0000  Tot=              0.0000
 Quadrupole moment (field-independent basis, Debye-Ang):
   XX=            -90.5677   YY=            -86.0177   ZZ=            -98.2595
   XY=             -0.0000   XZ=             -2.6540   YZ=              0.0000
 Traceless Quadrupole moment (field-independent basis, Debye-Ang):
   XX=              1.0472   YY=              5.5973   ZZ=             -6.6445
   XY=             -0.0000   XZ=             -2.6540   YZ=              0.0000
 Octapole moment (field-independent basis, Debye-Ang**2):
  XXX=             -0.0000  YYY=             -0.0000  ZZZ=              0.0000  XYY=              0.0000
  XXY=             -0.0000  XXZ=             -0.0000  XZZ=              0.0000  YZZ=              0.0000
  YYZ=              0.0000  XYZ=             -0.0000
 Hexadecapole moment (field-independent basis, Debye-Ang**3):
 XXXX=          -4013.8405 YYYY=           -943.8280 ZZZZ=           -217.7064 XXXY=             -0.0001
 XXXZ=            -90.4944 YYYX=             -0.0000 YYYZ=              0.0000 ZZZX=             -0.6538
 ZZZY=              0.0000 XXYY=           -821.6546 XXZZ=           -824.9837 YYZZ=           -212.6836
 XXYZ=              0.0000 YYXZ=             -2.3447 ZZXY=             -0.0000
 N-N= 1.014105172836D+03 E-N=-3.463535620986D+03  KE= 6.152912498654D+02
 Unable to Open any file for archive entry.
 1\1\GINC-HPCS02\FOpt\RB3LYP\Gen\C16H16\Z036650\06-Jan-2026\0\\# opt=ma
 xstep=5 b3lyp/gen int=grid=ultrafine scf=(xqc,maxcycle=200,noincore)\\
 m2g_dcbod_chair\\0,1\C,1.7765896274,0.706390516,0.3231306463\C,1.77658
 96716,-0.7063905657,0.3231313987\C,2.9755581696,-1.3821499094,0.059501
 4046\C,4.1616179357,-0.6967766469,-0.2064706625\C,4.1616180612,0.69677
 56966,-0.2064709077\C,2.9755584658,1.3821494573,0.0595003185\C,0.51893
 69519,-1.5095435842,0.5874366667\C,-0.5189367681,-1.5095435352,-0.5874
 353216\C,-1.7765893227,-0.7063903515,-0.3231303081\C,-1.7765894259,0.7
 063908977,-0.3231299734\C,-2.9755584577,1.3821495195,-0.0595003072\C,-
 4.1616184384,0.6967759982,0.2064699085\C,-4.1616182917,-0.696776374,0.
 2064693987\C,-2.9755582068,-1.382149582,-0.0595012341\C,-0.5189369917,
 1.5095446238,-0.5874351614\C,0.5189375635,1.5095444964,0.587435893\H,2
 .9768957423,-2.4702127003,0.0671272523\H,5.0761381357,-1.2489694042,-0
 .4065954843\H,5.0761384408,1.2489680942,-0.4065961116\H,2.9768957609,2
 .4702122422,0.0671254911\H,0.813515126,-2.5452974913,0.7890871188\H,0.
 0213590749,-1.1551851215,1.4986895838\H,-0.8135150781,-2.5452974578,-0
 .7890855451\H,-0.0213586499,-1.1551851273,-1.4986880754\H,-2.976895925
 6,2.4702123909,-0.0671254316\H,-5.0761389092,1.2489685163,0.4065941867
 \H,-5.0761387383,-1.2489691722,0.4065931749\H,-2.9768951339,-2.4702123
 901,-0.0671271823\H,-0.0213597269,1.155186907,-1.4986886744\H,-0.81351
 60351,2.5452984941,-0.7890843959\H,0.8135166118,2.5452984021,0.7890851
 118\H,0.0213597609,1.1551871613,1.4986892223\\Version=ES64L-G16RevC.02
 \State=1-A\HF=-619.3364735\RMSD=4.514e-09\RMSF=2.621e-05\Dipole=0.0000
 001,0.,-0.0000002\Quadrupole=0.7785984,4.1614366,-4.940035,-0.0000016,
 -1.9731636,0.0000004\PG=C01 [X(C16H16)]\\@
 The archive entry for this job was punched.


 FAULTILY FAULTLESS, ICILY REGULAR, SPLENDIDLY NULL...
           MAUDE BY TENNYSON
 Job cpu time:       0 days  0 hours  6 minutes 10.2 seconds.
 Elapsed time:       0 days  0 hours  0 minutes 13.5 seconds.
 File lengths (MBytes):  RWF=     42 Int=      0 D2E=      0 Chk=      7 Scr=      1
 Normal termination of Gaussian 16 at Tue Jan  6 13:33:45 2026.
