 Entering Gaussian System, Link 0=g16
 Input=dcbod_twistboat_b3lyp-dcp.gjf
 Output=dcbod_twistboat_b3lyp-dcp.log
 Initial command:
 /usr/local/gaussian16c02/g16/l1.exe "/scr/Gau-1329347.inp" -scrdir="/scr/"
 Entering Link 1 = /usr/local/gaussian16c02/g16/l1.exe PID=   1329348.
  
 Copyright (c) 1988-2021, Gaussian, Inc.  All Rights Reserved.
  
 This is part of the Gaussian(R) 16 program.  It is based on
 the Gaussian(R) 09 system (copyright 2009, Gaussian, Inc.),
 the Gaussian(R) 03 system (copyright 2003, Gaussian, Inc.),
 the Gaussian(R) 98 system (copyright 1998, Gaussian, Inc.),
 the Gaussian(R) 94 system (copyright 1995, Gaussian, Inc.),
 the Gaussian 92(TM) system (copyright 1992, Gaussian, Inc.),
 the Gaussian 90(TM) system (copyright 1990, Gaussian, Inc.),
 the Gaussian 88(TM) system (copyright 1988, Gaussian, Inc.),
 the Gaussian 86(TM) system (copyright 1986, Carnegie Mellon
 University), and the Gaussian 82(TM) system (copyright 1983,
 Carnegie Mellon University). Gaussian is a federally registered
 trademark of Gaussian, Inc.
  
 This software contains proprietary and confidential information,
 including trade secrets, belonging to Gaussian, Inc.
  
 This software is provided under written license and may be
 used, copied, transmitted, or stored only in accord with that
 written license.
  
 The following legend is applicable only to US Government
 contracts under FAR:
  
                    RESTRICTED RIGHTS LEGEND
  
 Use, reproduction and disclosure by the US Government is
 subject to restrictions as set forth in subparagraphs (a)
 and (c) of the Commercial Computer Software - Restricted
 Rights clause in FAR 52.227-19.
  
 Gaussian, Inc.
 340 Quinnipiac St., Bldg. 40, Wallingford CT 06492
  
  
 ---------------------------------------------------------------
 Warning -- This program may not be used in any manner that
 competes with the business of Gaussian, Inc. or will provide
 assistance to any competitor of Gaussian, Inc.  The licensee
 of this program is prohibited from giving any competitor of
 Gaussian, Inc. access to this program.  By using this program,
 the user acknowledges that Gaussian, Inc. is engaged in the
 business of creating and licensing software in the field of
 computational chemistry and represents and warrants to the
 licensee that it is not a competitor of Gaussian, Inc. and that
 it will not use this program in any manner prohibited above.
 ---------------------------------------------------------------
  

 Cite this work as:
 Gaussian 16, Revision C.02,
 M. J. Frisch, G. W. Trucks, H. B. Schlegel, G. E. Scuseria, 
 M. A. Robb, J. R. Cheeseman, G. Scalmani, V. Barone, 
 G. A. Petersson, H. Nakatsuji, X. Li, M. Caricato, A. V. Marenich, 
 J. Bloino, B. G. Janesko, R. Gomperts, B. Mennucci, H. P. Hratchian, 
 J. V. Ortiz, A. F. Izmaylov, J. L. Sonnenberg, D. Williams-Young, 
 F. Ding, F. Lipparini, F. Egidi, J. Goings, B. Peng, A. Petrone, 
 T. Henderson, D. Ranasinghe, V. G. Zakrzewski, J. Gao, N. Rega, 
 G. Zheng, W. Liang, M. Hada, M. Ehara, K. Toyota, R. Fukuda, 
 J. Hasegawa, M. Ishida, T. Nakajima, Y. Honda, O. Kitao, H. Nakai, 
 T. Vreven, K. Throssell, J. A. Montgomery, Jr., J. E. Peralta, 
 F. Ogliaro, M. J. Bearpark, J. J. Heyd, E. N. Brothers, K. N. Kudin, 
 V. N. Staroverov, T. A. Keith, R. Kobayashi, J. Normand, 
 K. Raghavachari, A. P. Rendell, J. C. Burant, S. S. Iyengar, 
 J. Tomasi, M. Cossi, J. M. Millam, M. Klene, C. Adamo, R. Cammi, 
 J. W. Ochterski, R. L. Martin, K. Morokuma, O. Farkas, 
 J. B. Foresman, and D. J. Fox, Gaussian, Inc., Wallingford CT, 2019.
 
 ******************************************
 Gaussian 16:  ES64L-G16RevC.02  7-Dec-2021
                 6-Jan-2026 
 ******************************************
 %chk=dcbod_twistboat_b3lyp-dcp.chk
 %mem=4GB
 %nprocshared=32
 Will use up to   32 processors via shared memory.
 ----------------------------------------------------------------------
 # opt=maxstep=5 b3lyp/gen int=grid=ultrafine scf=(xqc,maxcycle=200,noi
 ncore)
 ----------------------------------------------------------------------
 1/8=5,18=20,19=15,26=4,38=1/1,3;
 2/9=110,12=2,17=6,18=5,40=1/2;
 3/5=7,11=2,25=1,30=1,71=1,74=-5,75=-5/1,2,3;
 4//1;
 5/5=4,7=200,8=3,13=1,38=5/2,8;
 6/7=2,8=2,9=2,10=2,28=1/1;
 7//1,2,3,16;
 1/8=5,18=20,19=15,26=4/3(2);
 2/9=110/2;
 99//99;
 2/9=110/2;
 3/5=7,6=1,11=2,25=1,30=1,71=1,74=-5,75=-5,82=7/1,2,3;
 4/5=5,16=3,69=1/1;
 5/5=4,7=200,8=3,13=1,38=5/2,8;
 7//1,2,3,16;
 1/8=5,18=20,19=15,26=4/3(-5);
 2/9=110/2;
 6/7=2,8=2,9=2,10=2,19=2,28=1/1;
 99/9=1/99;
 -------------------
 m2g_dcbod_twistboat
 -------------------
 Symbolic Z-matrix:
 Charge =  0 Multiplicity = 1
 C                    -1.42577  -0.83529   0.33602 
 C                    -2.10269  -1.43408  -0.73503 
 C                    -2.91147  -0.69661  -1.59866 
 C                    -3.05502   0.67512  -1.40148 
 C                    -2.38397   1.28623  -0.34358 
 C                    -1.56908   0.55517   0.52917 
 C                    -0.83454   1.27288   1.63855 
 C                     0.60972   1.72597   1.26194 
 C                     1.42577   0.83529   0.33602 
 C                     2.10269   1.43408  -0.73502 
 C                     2.91148   0.69662  -1.59866 
 C                     3.05503  -0.67511  -1.40148 
 C                     2.38397  -1.28623  -0.34359 
 C                     1.56908  -0.55517   0.52917 
 C                     0.83454  -1.27289   1.63855 
 C                    -0.60972  -1.72597   1.26194 
 H                    -1.99343  -2.50438  -0.89255 
 H                    -3.42343  -1.19214  -2.41851 
 H                    -3.68282   1.2653   -2.06278 
 H                    -2.4937    2.35665  -0.18458 
 H                    -0.81077   0.64487   2.53313 
 H                    -1.39537   2.17018   1.92273 
 H                     1.16579   1.88956   2.19639 
 H                     0.54011   2.70896   0.78464 
 H                     1.99343   2.50439  -0.89253 
 H                     3.42344   1.19215  -2.4185 
 H                     3.68283  -1.26529  -2.06278 
 H                     2.4937   -2.35665  -0.18459 
 H                     0.81077  -0.64489   2.53313 
 H                     1.39537  -2.17019   1.92272 
 H                    -0.54012  -2.70897   0.78463 
 H                    -1.16579  -1.88957   2.19639 
 

 GradGradGradGradGradGradGradGradGradGradGradGradGradGradGradGradGradGrad
 Berny optimization.
 Initialization pass.
                           ----------------------------
                           !    Initial Parameters    !
                           ! (Angstroms and Degrees)  !
 --------------------------                            --------------------------
 ! Name  Definition              Value          Derivative Info.                !
 --------------------------------------------------------------------------------
 ! R1    R(1,2)                  1.4014         estimate D2E/DX2                !
 ! R2    R(1,6)                  1.4111         estimate D2E/DX2                !
 ! R3    R(1,16)                 1.522          estimate D2E/DX2                !
 ! R4    R(2,3)                  1.3942         estimate D2E/DX2                !
 ! R5    R(2,17)                 1.0873         estimate D2E/DX2                !
 ! R6    R(3,4)                  1.3932         estimate D2E/DX2                !
 ! R7    R(3,18)                 1.0862         estimate D2E/DX2                !
 ! R8    R(4,5)                  1.3939         estimate D2E/DX2                !
 ! R9    R(4,19)                 1.0862         estimate D2E/DX2                !
 ! R10   R(5,6)                  1.4001         estimate D2E/DX2                !
 ! R11   R(5,20)                 1.0877         estimate D2E/DX2                !
 ! R12   R(6,7)                  1.5118         estimate D2E/DX2                !
 ! R13   R(7,8)                  1.5598         estimate D2E/DX2                !
 ! R14   R(7,21)                 1.0933         estimate D2E/DX2                !
 ! R15   R(7,22)                 1.0956         estimate D2E/DX2                !
 ! R16   R(8,9)                  1.522          estimate D2E/DX2                !
 ! R17   R(8,23)                 1.0996         estimate D2E/DX2                !
 ! R18   R(8,24)                 1.095          estimate D2E/DX2                !
 ! R19   R(9,10)                 1.4014         estimate D2E/DX2                !
 ! R20   R(9,14)                 1.4111         estimate D2E/DX2                !
 ! R21   R(10,11)                1.3942         estimate D2E/DX2                !
 ! R22   R(10,25)                1.0873         estimate D2E/DX2                !
 ! R23   R(11,12)                1.3932         estimate D2E/DX2                !
 ! R24   R(11,26)                1.0862         estimate D2E/DX2                !
 ! R25   R(12,13)                1.3939         estimate D2E/DX2                !
 ! R26   R(12,27)                1.0862         estimate D2E/DX2                !
 ! R27   R(13,14)                1.4001         estimate D2E/DX2                !
 ! R28   R(13,28)                1.0877         estimate D2E/DX2                !
 ! R29   R(14,15)                1.5118         estimate D2E/DX2                !
 ! R30   R(15,16)                1.5598         estimate D2E/DX2                !
 ! R31   R(15,29)                1.0933         estimate D2E/DX2                !
 ! R32   R(15,30)                1.0956         estimate D2E/DX2                !
 ! R33   R(16,31)                1.095          estimate D2E/DX2                !
 ! R34   R(16,32)                1.0996         estimate D2E/DX2                !
 ! A1    A(2,1,6)              118.4624         estimate D2E/DX2                !
 ! A2    A(2,1,16)             118.2868         estimate D2E/DX2                !
 ! A3    A(6,1,16)             123.217          estimate D2E/DX2                !
 ! A4    A(1,2,3)              121.8448         estimate D2E/DX2                !
 ! A5    A(1,2,17)             118.866          estimate D2E/DX2                !
 ! A6    A(3,2,17)             119.2891         estimate D2E/DX2                !
 ! A7    A(2,3,4)              119.5298         estimate D2E/DX2                !
 ! A8    A(2,3,18)             119.9774         estimate D2E/DX2                !
 ! A9    A(4,3,18)             120.4927         estimate D2E/DX2                !
 ! A10   A(3,4,5)              119.3055         estimate D2E/DX2                !
 ! A11   A(3,4,19)             120.5542         estimate D2E/DX2                !
 ! A12   A(5,4,19)             120.1403         estimate D2E/DX2                !
 ! A13   A(4,5,6)              121.6268         estimate D2E/DX2                !
 ! A14   A(4,5,20)             119.5926         estimate D2E/DX2                !
 ! A15   A(6,5,20)             118.7804         estimate D2E/DX2                !
 ! A16   A(1,6,5)              119.2294         estimate D2E/DX2                !
 ! A17   A(1,6,7)              121.2593         estimate D2E/DX2                !
 ! A18   A(5,6,7)              119.4952         estimate D2E/DX2                !
 ! A19   A(6,7,8)              114.2434         estimate D2E/DX2                !
 ! A20   A(6,7,21)             109.7748         estimate D2E/DX2                !
 ! A21   A(6,7,22)             109.2954         estimate D2E/DX2                !
 ! A22   A(8,7,21)             110.1386         estimate D2E/DX2                !
 ! A23   A(8,7,22)             107.3786         estimate D2E/DX2                !
 ! A24   A(21,7,22)            105.6249         estimate D2E/DX2                !
 ! A25   A(7,8,9)              118.2514         estimate D2E/DX2                !
 ! A26   A(7,8,23)             107.8342         estimate D2E/DX2                !
 ! A27   A(7,8,24)             107.8882         estimate D2E/DX2                !
 ! A28   A(9,8,23)             109.4446         estimate D2E/DX2                !
 ! A29   A(9,8,24)             107.1124         estimate D2E/DX2                !
 ! A30   A(23,8,24)            105.6062         estimate D2E/DX2                !
 ! A31   A(8,9,10)             118.2867         estimate D2E/DX2                !
 ! A32   A(8,9,14)             123.2171         estimate D2E/DX2                !
 ! A33   A(10,9,14)            118.4623         estimate D2E/DX2                !
 ! A34   A(9,10,11)            121.8448         estimate D2E/DX2                !
 ! A35   A(9,10,25)            118.866          estimate D2E/DX2                !
 ! A36   A(11,10,25)           119.289          estimate D2E/DX2                !
 ! A37   A(10,11,12)           119.5298         estimate D2E/DX2                !
 ! A38   A(10,11,26)           119.9775         estimate D2E/DX2                !
 ! A39   A(12,11,26)           120.4927         estimate D2E/DX2                !
 ! A40   A(11,12,13)           119.3055         estimate D2E/DX2                !
 ! A41   A(11,12,27)           120.5543         estimate D2E/DX2                !
 ! A42   A(13,12,27)           120.1403         estimate D2E/DX2                !
 ! A43   A(12,13,14)           121.6268         estimate D2E/DX2                !
 ! A44   A(12,13,28)           119.5926         estimate D2E/DX2                !
 ! A45   A(14,13,28)           118.7804         estimate D2E/DX2                !
 ! A46   A(9,14,13)            119.2294         estimate D2E/DX2                !
 ! A47   A(9,14,15)            121.2593         estimate D2E/DX2                !
 ! A48   A(13,14,15)           119.4952         estimate D2E/DX2                !
 ! A49   A(14,15,16)           114.2434         estimate D2E/DX2                !
 ! A50   A(14,15,29)           109.7747         estimate D2E/DX2                !
 ! A51   A(14,15,30)           109.2953         estimate D2E/DX2                !
 ! A52   A(16,15,29)           110.1387         estimate D2E/DX2                !
 ! A53   A(16,15,30)           107.3787         estimate D2E/DX2                !
 ! A54   A(29,15,30)           105.6249         estimate D2E/DX2                !
 ! A55   A(1,16,15)            118.2514         estimate D2E/DX2                !
 ! A56   A(1,16,31)            107.1125         estimate D2E/DX2                !
 ! A57   A(1,16,32)            109.4446         estimate D2E/DX2                !
 ! A58   A(15,16,31)           107.8882         estimate D2E/DX2                !
 ! A59   A(15,16,32)           107.8342         estimate D2E/DX2                !
 ! A60   A(31,16,32)           105.6061         estimate D2E/DX2                !
 ! D1    D(6,1,2,3)             -0.3993         estimate D2E/DX2                !
 ! D2    D(6,1,2,17)           179.7358         estimate D2E/DX2                !
 ! D3    D(16,1,2,3)           177.5547         estimate D2E/DX2                !
 ! D4    D(16,1,2,17)           -2.3103         estimate D2E/DX2                !
 ! D5    D(2,1,6,5)              0.4096         estimate D2E/DX2                !
 ! D6    D(2,1,6,7)           -178.1231         estimate D2E/DX2                !
 ! D7    D(16,1,6,5)          -177.4367         estimate D2E/DX2                !
 ! D8    D(16,1,6,7)             4.0306         estimate D2E/DX2                !
 ! D9    D(2,1,16,15)          133.2594         estimate D2E/DX2                !
 ! D10   D(2,1,16,31)           11.2344         estimate D2E/DX2                !
 ! D11   D(2,1,16,32)         -102.7946         estimate D2E/DX2                !
 ! D12   D(6,1,16,15)          -48.8907         estimate D2E/DX2                !
 ! D13   D(6,1,16,31)         -170.9157         estimate D2E/DX2                !
 ! D14   D(6,1,16,32)           75.0552         estimate D2E/DX2                !
 ! D15   D(1,2,3,4)              0.1364         estimate D2E/DX2                !
 ! D16   D(1,2,3,18)          -179.913          estimate D2E/DX2                !
 ! D17   D(17,2,3,4)          -179.9992         estimate D2E/DX2                !
 ! D18   D(17,2,3,18)           -0.0486         estimate D2E/DX2                !
 ! D19   D(2,3,4,5)              0.1146         estimate D2E/DX2                !
 ! D20   D(2,3,4,19)          -179.8524         estimate D2E/DX2                !
 ! D21   D(18,3,4,5)          -179.8357         estimate D2E/DX2                !
 ! D22   D(18,3,4,19)            0.1972         estimate D2E/DX2                !
 ! D23   D(3,4,5,6)             -0.0954         estimate D2E/DX2                !
 ! D24   D(3,4,5,20)          -179.9238         estimate D2E/DX2                !
 ! D25   D(19,4,5,6)           179.8717         estimate D2E/DX2                !
 ! D26   D(19,4,5,20)            0.0434         estimate D2E/DX2                !
 ! D27   D(4,5,6,1)             -0.1713         estimate D2E/DX2                !
 ! D28   D(4,5,6,7)            178.3876         estimate D2E/DX2                !
 ! D29   D(20,5,6,1)           179.6584         estimate D2E/DX2                !
 ! D30   D(20,5,6,7)            -1.7827         estimate D2E/DX2                !
 ! D31   D(1,6,7,8)             86.0325         estimate D2E/DX2                !
 ! D32   D(1,6,7,21)           -38.2421         estimate D2E/DX2                !
 ! D33   D(1,6,7,22)          -153.6539         estimate D2E/DX2                !
 ! D34   D(5,6,7,8)            -92.4963         estimate D2E/DX2                !
 ! D35   D(5,6,7,21)           143.2291         estimate D2E/DX2                !
 ! D36   D(5,6,7,22)            27.8172         estimate D2E/DX2                !
 ! D37   D(6,7,8,9)            -34.98           estimate D2E/DX2                !
 ! D38   D(6,7,8,23)          -159.721          estimate D2E/DX2                !
 ! D39   D(6,7,8,24)            86.6508         estimate D2E/DX2                !
 ! D40   D(21,7,8,9)            89.1            estimate D2E/DX2                !
 ! D41   D(21,7,8,23)          -35.641          estimate D2E/DX2                !
 ! D42   D(21,7,8,24)         -149.2692         estimate D2E/DX2                !
 ! D43   D(22,7,8,9)          -156.3574         estimate D2E/DX2                !
 ! D44   D(22,7,8,23)           78.9016         estimate D2E/DX2                !
 ! D45   D(22,7,8,24)          -34.7266         estimate D2E/DX2                !
 ! D46   D(7,8,9,10)           133.2597         estimate D2E/DX2                !
 ! D47   D(7,8,9,14)           -48.8904         estimate D2E/DX2                !
 ! D48   D(23,8,9,10)         -102.7943         estimate D2E/DX2                !
 ! D49   D(23,8,9,14)           75.0556         estimate D2E/DX2                !
 ! D50   D(24,8,9,10)           11.2348         estimate D2E/DX2                !
 ! D51   D(24,8,9,14)         -170.9152         estimate D2E/DX2                !
 ! D52   D(8,9,10,11)          177.5547         estimate D2E/DX2                !
 ! D53   D(8,9,10,25)           -2.3102         estimate D2E/DX2                !
 ! D54   D(14,9,10,11)          -0.3993         estimate D2E/DX2                !
 ! D55   D(14,9,10,25)         179.7358         estimate D2E/DX2                !
 ! D56   D(8,9,14,13)         -177.4367         estimate D2E/DX2                !
 ! D57   D(8,9,14,15)            4.0304         estimate D2E/DX2                !
 ! D58   D(10,9,14,13)           0.4097         estimate D2E/DX2                !
 ! D59   D(10,9,14,15)        -178.1232         estimate D2E/DX2                !
 ! D60   D(9,10,11,12)           0.1364         estimate D2E/DX2                !
 ! D61   D(9,10,11,26)        -179.913          estimate D2E/DX2                !
 ! D62   D(25,10,11,12)       -179.9992         estimate D2E/DX2                !
 ! D63   D(25,10,11,26)         -0.0486         estimate D2E/DX2                !
 ! D64   D(10,11,12,13)          0.1146         estimate D2E/DX2                !
 ! D65   D(10,11,12,27)       -179.8524         estimate D2E/DX2                !
 ! D66   D(26,11,12,13)       -179.8358         estimate D2E/DX2                !
 ! D67   D(26,11,12,27)          0.1972         estimate D2E/DX2                !
 ! D68   D(11,12,13,14)         -0.0954         estimate D2E/DX2                !
 ! D69   D(11,12,13,28)       -179.9238         estimate D2E/DX2                !
 ! D70   D(27,12,13,14)        179.8717         estimate D2E/DX2                !
 ! D71   D(27,12,13,28)          0.0434         estimate D2E/DX2                !
 ! D72   D(12,13,14,9)          -0.1714         estimate D2E/DX2                !
 ! D73   D(12,13,14,15)        178.3878         estimate D2E/DX2                !
 ! D74   D(28,13,14,9)         179.6584         estimate D2E/DX2                !
 ! D75   D(28,13,14,15)         -1.7825         estimate D2E/DX2                !
 ! D76   D(9,14,15,16)          86.0325         estimate D2E/DX2                !
 ! D77   D(9,14,15,29)         -38.2421         estimate D2E/DX2                !
 ! D78   D(9,14,15,30)        -153.6539         estimate D2E/DX2                !
 ! D79   D(13,14,15,16)        -92.4966         estimate D2E/DX2                !
 ! D80   D(13,14,15,29)        143.2288         estimate D2E/DX2                !
 ! D81   D(13,14,15,30)         27.817          estimate D2E/DX2                !
 ! D82   D(14,15,16,1)         -34.9798         estimate D2E/DX2                !
 ! D83   D(14,15,16,31)         86.6512         estimate D2E/DX2                !
 ! D84   D(14,15,16,32)       -159.7208         estimate D2E/DX2                !
 ! D85   D(29,15,16,1)          89.1002         estimate D2E/DX2                !
 ! D86   D(29,15,16,31)       -149.2688         estimate D2E/DX2                !
 ! D87   D(29,15,16,32)        -35.6408         estimate D2E/DX2                !
 ! D88   D(30,15,16,1)        -156.3571         estimate D2E/DX2                !
 ! D89   D(30,15,16,31)        -34.7262         estimate D2E/DX2                !
 ! D90   D(30,15,16,32)         78.9019         estimate D2E/DX2                !
 --------------------------------------------------------------------------------
 Trust Radius=5.00D-02 FncErr=1.00D-07 GrdErr=1.00D-06 EigMax=2.50D+02 EigMin=1.00D-04
 Number of steps in this run=    192 maximum allowed number of steps=    192.
 GradGradGradGradGradGradGradGradGradGradGradGradGradGradGradGradGradGrad

                          Input orientation:                          
 ---------------------------------------------------------------------
 Center     Atomic      Atomic             Coordinates (Angstroms)
 Number     Number       Type             X           Y           Z
 ---------------------------------------------------------------------
      1          6           0       -1.425770   -0.835294    0.336019
      2          6           0       -2.102688   -1.434077   -0.735032
      3          6           0       -2.911474   -0.696610   -1.598664
      4          6           0       -3.055023    0.675119   -1.401477
      5          6           0       -2.383969    1.286229   -0.343583
      6          6           0       -1.569079    0.555165    0.529169
      7          6           0       -0.834541    1.272879    1.638552
      8          6           0        0.609717    1.725967    1.261943
      9          6           0        1.425769    0.835292    0.336024
     10          6           0        2.102689    1.434081   -0.735022
     11          6           0        2.911477    0.696620   -1.598657
     12          6           0        3.055025   -0.675110   -1.401479
     13          6           0        2.383969   -1.286227   -0.343590
     14          6           0        1.569077   -0.555169    0.529165
     15          6           0        0.834539   -1.272890    1.638545
     16          6           0       -0.609720   -1.725973    1.261935
     17          1           0       -1.993428   -2.504382   -0.892549
     18          1           0       -3.423431   -1.192139   -2.418514
     19          1           0       -3.682822    1.265303   -2.062779
     20          1           0       -2.493701    2.356650   -0.184579
     21          1           0       -0.810770    0.644873    2.533130
     22          1           0       -1.395371    2.170181    1.922732
     23          1           0        1.165785    1.889560    2.196394
     24          1           0        0.540109    2.708960    0.784635
     25          1           0        1.993430    2.504387   -0.892533
     26          1           0        3.423436    1.192154   -2.418502
     27          1           0        3.682825   -1.265291   -2.062783
     28          1           0        2.493700   -2.356649   -0.184593
     29          1           0        0.810771   -0.644890    2.533127
     30          1           0        1.395370   -2.170194    1.922717
     31          1           0       -0.540116   -2.708966    0.784626
     32          1           0       -1.165788   -1.889567    2.196387
 ---------------------------------------------------------------------
                    Distance matrix (angstroms):
                    1          2          3          4          5
     1  C    0.000000
     2  C    1.401395   0.000000
     3  C    2.443266   1.394221   0.000000
     4  C    2.820409   2.408277   1.393244   0.000000
     5  C    2.425049   2.762683   2.405232   1.393883   0.000000
     6  C    1.411106   2.416615   2.810096   2.439224   1.400070
     7  C    2.547653   3.817029   4.321123   3.811776   2.515902
     8  C    3.400088   4.618542   5.143028   4.650635   3.425382
     9  C    3.304865   4.329804   4.990132   4.808541   3.896064
    10  C    4.329805   5.090337   5.516117   5.255681   4.506127
    11  C    4.990135   5.516119   5.987307   5.969796   5.473993
    12  C    4.808543   5.255681   5.969795   6.257460   5.877810
    13  C    3.896065   4.506127   5.473991   5.877809   5.417634
    14  C    3.014114   3.981524   4.962157   5.159776   4.447360
    15  C    2.645196   3.779835   4.984399   5.307086   4.564725
    16  C    1.522027   2.510385   3.813225   4.340336   3.846948
    17  H    2.148830   1.087337   2.146962   3.390460   3.850015
    18  H    3.421321   2.153371   1.086187   2.157948   3.395310
    19  H    3.906536   3.397998   2.158584   1.086172   2.154783
    20  H    3.405878   3.850390   3.390659   2.150225   1.087715
    21  H    2.719635   4.083132   4.825376   4.529759   3.340924
    22  H    3.398744   4.533727   4.787201   4.004999   2.625811
    23  H    4.195472   5.506608   6.141236   5.677567   4.406387
    24  H    4.077704   5.143785   5.402911   4.673389   3.441987
    25  H    4.934951   5.684583   5.899414   5.393711   4.576776
    26  H    5.934032   6.345802   6.661130   6.578153   6.167665
    27  H    5.660114   5.938314   6.635027   7.042806   6.802345
    28  H    4.236485   4.720265   5.828485   6.439002   6.089950
    29  H    3.140964   4.448811   5.561428   5.671675   4.712860
    30  H    3.501200   4.454426   5.755039   6.241159   5.600570
    31  H    2.120443   2.525140   3.918289   4.749298   4.542492
    32  H    2.154078   3.111024   4.344304   4.805356   4.245126
                    6          7          8          9         10
     6  C    0.000000
     7  C    1.511751   0.000000
     8  C    2.579707   1.559809   0.000000
     9  C    3.014115   2.645196   1.522028   0.000000
    10  C    3.981526   3.779836   2.510385   1.401395   0.000000
    11  C    4.962160   4.984400   3.813225   2.443266   1.394221
    12  C    5.159779   5.307087   4.340336   2.820409   2.408276
    13  C    4.447361   4.564725   3.846949   2.425050   2.762682
    14  C    3.328793   3.217123   2.580875   1.411107   2.416615
    15  C    3.217123   3.044137   3.030762   2.547655   3.817030
    16  C    2.580873   3.030759   3.660999   3.400089   4.618543
    17  H    3.400321   4.692248   5.414245   4.934949   5.684583
    18  H    3.896220   5.407259   6.190912   5.934029   6.345800
    19  H    3.419123   4.670398   5.449025   5.660112   5.938313
    20  H    2.147024   2.692801   3.481579   4.236485   4.720267
    21  H    2.144514   1.093264   2.191452   3.140962   4.448810
    22  H    2.140203   1.095646   2.157393   3.501200   4.454427
    23  H    3.469831   2.166284   1.099624   2.154077   3.111021
    24  H    3.025354   2.163600   1.094963   2.120443   2.525140
    25  H    4.302578   3.990041   2.676260   2.148830   1.087337
    26  H    5.832643   5.881885   4.663437   3.421321   2.153371
    27  H    6.133088   6.367793   5.426363   3.906536   3.397998
    28  H    5.049187   5.251145   4.723305   3.405878   3.850389
    29  H    3.334616   2.680514   2.697646   2.719637   4.083132
    30  H    4.261164   4.111934   4.029137   3.398745   4.533726
    31  H    3.431993   4.083009   4.606363   4.077709   5.143791
    32  H    2.986465   3.228307   4.134935   4.195471   5.506608
                   11         12         13         14         15
    11  C    0.000000
    12  C    1.393244   0.000000
    13  C    2.405232   1.393883   0.000000
    14  C    2.810096   2.439224   1.400070   0.000000
    15  C    4.321125   3.811777   2.515903   1.511752   0.000000
    16  C    5.143031   4.650639   3.425385   2.579707   1.559809
    17  H    5.899415   5.393711   4.576774   4.302574   3.990038
    18  H    6.661129   6.578151   6.167662   5.832639   5.881884
    19  H    6.635027   7.042805   6.802343   6.133085   6.367792
    20  H    5.828487   6.439004   6.089951   5.049187   5.251145
    21  H    5.561426   5.671673   4.712857   3.334614   2.680511
    22  H    5.755041   6.241160   5.600570   4.261163   4.111934
    23  H    4.344302   4.805356   4.245128   2.986469   3.228314
    24  H    3.918288   4.749297   4.542492   3.431993   4.083011
    25  H    2.146961   3.390459   3.850015   3.400321   4.692250
    26  H    1.086187   2.157947   3.395309   3.896219   5.407260
    27  H    2.158584   1.086172   2.154783   3.419122   4.670398
    28  H    3.390659   2.150226   1.087715   2.147023   2.692802
    29  H    4.825376   4.529759   3.340923   2.144514   1.093264
    30  H    4.787199   4.004998   2.625809   2.140203   1.095646
    31  H    5.402920   4.673400   3.441995   3.025359   2.163601
    32  H    6.141239   5.677571   4.406390   3.469832   2.166284
                   16         17         18         19         20
    16  C    0.000000
    17  H    2.676260   0.000000
    18  H    4.663438   2.468898   0.000000
    19  H    5.426363   4.293485   2.496568   0.000000
    20  H    4.723304   4.937725   4.295203   2.476425   0.000000
    21  H    2.697641   4.801225   5.892316   5.454906   3.626069
    22  H    4.029133   5.489537   5.853601   4.683539   2.383665
    23  H    4.134938   6.231286   7.201052   6.483768   4.390791
    24  H    4.606360   6.034127   6.417818   5.293870   3.204294
    25  H    5.414247   6.401781   6.733150   5.926605   4.545038
    26  H    6.190915   6.733151   7.250134   7.115532   6.431094
    27  H    5.449029   5.926605   7.115530   7.788239   7.402404
    28  H    3.481582   4.545035   6.431091   7.402401   6.862168
    29  H    2.191453   4.801718   6.538096   6.705488   5.226347
    30  H    2.157395   4.418298   6.559247   7.312650   6.329130
    31  H    1.094963   2.228651   4.568848   5.811982   5.515099
    32  H    1.099625   3.256457   5.184657   5.867637   5.046059
                   21         22         23         24         25
    21  H    0.000000
    22  H    1.743820   0.000000
    23  H    2.359959   2.590976   0.000000
    24  H    3.023667   2.309032   1.748128   0.000000
    25  H    4.801718   4.418301   3.256452   2.228651   0.000000
    26  H    6.538094   6.559249   5.184653   4.568847   2.468897
    27  H    6.705486   7.312652   5.867637   5.811981   4.293485
    28  H    5.226344   6.329130   5.046063   5.515099   4.937724
    29  H    2.071928   3.628260   2.581252   3.791938   4.801226
    30  H    3.628259   5.160144   4.075440   5.082602   5.489537
    31  H    3.791933   5.082600   5.103884   5.524564   6.034134
    32  H    2.581244   4.075432   4.440499   5.103879   6.231285
                   26         27         28         29         30
    26  H    0.000000
    27  H    2.496569   0.000000
    28  H    4.295202   2.476424   0.000000
    29  H    5.892315   5.454904   3.626068   0.000000
    30  H    5.853599   4.683536   2.383663   1.743820   0.000000
    31  H    6.417828   5.293880   3.204302   3.023667   2.309033
    32  H    7.201054   6.483772   4.390795   2.359958   2.590980
                   31         32
    31  H    0.000000
    32  H    1.748127   0.000000
 Stoichiometry    C16H16
 Framework group  C1[X(C16H16)]
 Deg. of freedom    90
 Full point group                 C1      NOp   1
 Largest Abelian subgroup         C1      NOp   1
 Largest concise Abelian subgroup C1      NOp   1
                         Standard orientation:                         
 ---------------------------------------------------------------------
 Center     Atomic      Atomic             Coordinates (Angstroms)
 Number     Number       Type             X           Y           Z
 ---------------------------------------------------------------------
      1          6           0        1.425770    0.835294    0.336019
      2          6           0        2.102688    1.434077   -0.735032
      3          6           0        2.911474    0.696610   -1.598664
      4          6           0        3.055023   -0.675119   -1.401477
      5          6           0        2.383969   -1.286229   -0.343583
      6          6           0        1.569079   -0.555165    0.529169
      7          6           0        0.834541   -1.272879    1.638552
      8          6           0       -0.609717   -1.725967    1.261943
      9          6           0       -1.425769   -0.835292    0.336024
     10          6           0       -2.102689   -1.434081   -0.735022
     11          6           0       -2.911477   -0.696620   -1.598657
     12          6           0       -3.055025    0.675110   -1.401479
     13          6           0       -2.383969    1.286227   -0.343590
     14          6           0       -1.569077    0.555169    0.529165
     15          6           0       -0.834539    1.272890    1.638545
     16          6           0        0.609720    1.725973    1.261935
     17          1           0        1.993428    2.504382   -0.892549
     18          1           0        3.423431    1.192139   -2.418514
     19          1           0        3.682822   -1.265303   -2.062779
     20          1           0        2.493701   -2.356650   -0.184579
     21          1           0        0.810770   -0.644873    2.533130
     22          1           0        1.395371   -2.170181    1.922732
     23          1           0       -1.165785   -1.889560    2.196394
     24          1           0       -0.540109   -2.708960    0.784635
     25          1           0       -1.993430   -2.504387   -0.892533
     26          1           0       -3.423436   -1.192154   -2.418502
     27          1           0       -3.682825    1.265291   -2.062783
     28          1           0       -2.493700    2.356649   -0.184593
     29          1           0       -0.810771    0.644890    2.533127
     30          1           0       -1.395370    2.170194    1.922717
     31          1           0        0.540116    2.708966    0.784626
     32          1           0        1.165788    1.889567    2.196387
 ---------------------------------------------------------------------
 Rotational constants (GHZ):           0.8449824           0.4307541           0.4239889
 General basis read from cards:  (5D, 7F)
 There are   272 symmetry adapted cartesian basis functions of A   symmetry.
 There are   256 symmetry adapted basis functions of A   symmetry.
   256 basis functions,   512 primitive gaussians,   272 cartesian basis functions
    56 alpha electrons       56 beta electrons
       nuclear repulsion energy      1045.5590249209 Hartrees.
 NAtoms=   32 NActive=   32 NUniq=   32 SFac= 1.00D+00 NAtFMM=   60 NAOKFM=F Big=F
 Integral buffers will be    131072 words long.
 Raffenetti 2 integral format.
 Two-electron integral symmetry is turned on.
 One-electron integrals computed using PRISM.
 NBasis=   256 RedAO= T EigKep=  3.97D-04  NBF=   256
 NBsUse=   256 1.00D-06 EigRej= -1.00D+00 NBFU=   256
 ExpMin= 1.61D-01 ExpMax= 3.05D+03 ExpMxC= 4.57D+02 IAcc=3 IRadAn=         5 AccDes= 0.00D+00
 Harris functional with IExCor=  402 and IRadAn=       5 diagonalized for initial guess.
 HarFok:  IExCor=  402 AccDes= 0.00D+00 IRadAn=         5 IDoV= 1 UseB2=F ITyADJ=14
 ICtDFT=  3500011 ScaDFX=  1.000000  1.000000  1.000000  1.000000
 FoFCou: FMM=F IPFlag=           0 FMFlag=      100000 FMFlg1=           0
         NFxFlg=           0 DoJE=T BraDBF=F KetDBF=T FulRan=T
         wScrn=  0.000000 ICntrl=       500 IOpCl=  0 I1Cent=   200000004 NGrid=           0
         NMat0=    1 NMatS0=      1 NMatT0=    0 NMatD0=    1 NMtDS0=    0 NMtDT0=    0
 Petite list used in FoFCou.
 Requested convergence on RMS density matrix=1.00D-08 within 128 cycles.
 Requested convergence on MAX density matrix=1.00D-06.
 Requested convergence on             energy=1.00D-06.
 No special actions if energy rises.
 Integral accuracy reduced to 1.0D-05 until final iterations.
 Initial convergence to 1.0D-05 achieved.  Increase integral accuracy.
 SCF Done:  E(RB3LYP) =  -619.335069973     A.U. after   13 cycles
            NFock= 13  Conv=0.61D-08     -V/T= 2.0065
 QCSCF skips out because SCF is already converged.

 **********************************************************************

            Population analysis using the SCF Density.

 **********************************************************************

 Orbital symmetries:
       Occupied  (A) (A) (A) (A) (A) (A) (A) (A) (A) (A) (A) (A)
                 (A) (A) (A) (A) (A) (A) (A) (A) (A) (A) (A) (A)
                 (A) (A) (A) (A) (A) (A) (A) (A) (A) (A) (A) (A)
                 (A) (A) (A) (A) (A) (A) (A) (A) (A) (A) (A) (A)
                 (A) (A) (A) (A) (A) (A) (A) (A)
       Virtual   (A) (A) (A) (A) (A) (A) (A) (A) (A) (A) (A) (A)
                 (A) (A) (A) (A) (A) (A) (A) (A) (A) (A) (A) (A)
                 (A) (A) (A) (A) (A) (A) (A) (A) (A) (A) (A) (A)
                 (A) (A) (A) (A) (A) (A) (A) (A) (A) (A) (A) (A)
                 (A) (A) (A) (A) (A) (A) (A) (A) (A) (A) (A) (A)
                 (A) (A) (A) (A) (A) (A) (A) (A) (A) (A) (A) (A)
                 (A) (A) (A) (A) (A) (A) (A) (A) (A) (A) (A) (A)
                 (A) (A) (A) (A) (A) (A) (A) (A) (A) (A) (A) (A)
                 (A) (A) (A) (A) (A) (A) (A) (A) (A) (A) (A) (A)
                 (A) (A) (A) (A) (A) (A) (A) (A) (A) (A) (A) (A)
                 (A) (A) (A) (A) (A) (A) (A) (A) (A) (A) (A) (A)
                 (A) (A) (A) (A) (A) (A) (A) (A) (A) (A) (A) (A)
                 (A) (A) (A) (A) (A) (A) (A) (A) (A) (A) (A) (A)
                 (A) (A) (A) (A) (A) (A) (A) (A) (A) (A) (A) (A)
                 (A) (A) (A) (A) (A) (A) (A) (A) (A) (A) (A) (A)
                 (A) (A) (A) (A) (A) (A) (A) (A) (A) (A) (A) (A)
                 (A) (A) (A) (A) (A) (A) (A) (A)
 The electronic state is 1-A.
 Alpha  occ. eigenvalues --  -10.18256 -10.18253 -10.18146 -10.18145 -10.18120
 Alpha  occ. eigenvalues --  -10.18119 -10.17929 -10.17925 -10.17394 -10.17394
 Alpha  occ. eigenvalues --  -10.17341 -10.17341 -10.17298 -10.17298 -10.17242
 Alpha  occ. eigenvalues --  -10.17242  -0.85870  -0.84367  -0.79130  -0.78318
 Alpha  occ. eigenvalues --   -0.74891  -0.74314  -0.71337  -0.69222  -0.65025
 Alpha  occ. eigenvalues --   -0.61825  -0.59596  -0.58032  -0.57459  -0.54342
 Alpha  occ. eigenvalues --   -0.50172  -0.48091  -0.47990  -0.45516  -0.44699
 Alpha  occ. eigenvalues --   -0.44363  -0.42922  -0.42799  -0.40959  -0.40464
 Alpha  occ. eigenvalues --   -0.39328  -0.39285  -0.38440  -0.37507  -0.35706
 Alpha  occ. eigenvalues --   -0.34880  -0.33722  -0.33580  -0.33188  -0.32585
 Alpha  occ. eigenvalues --   -0.31369  -0.31333  -0.23747  -0.23564  -0.23007
 Alpha  occ. eigenvalues --   -0.22855
 Alpha virt. eigenvalues --    0.00345   0.00626   0.00658   0.01607   0.08271
 Alpha virt. eigenvalues --    0.09419   0.10559   0.10859   0.12651   0.14059
 Alpha virt. eigenvalues --    0.14483   0.15724   0.15830   0.17394   0.17421
 Alpha virt. eigenvalues --    0.17943   0.18434   0.20200   0.20349   0.21237
 Alpha virt. eigenvalues --    0.21397   0.22389   0.23276   0.23783   0.24926
 Alpha virt. eigenvalues --    0.27924   0.28514   0.28589   0.32298   0.33218
 Alpha virt. eigenvalues --    0.33357   0.35559   0.35762   0.36309   0.37472
 Alpha virt. eigenvalues --    0.40004   0.47449   0.49327   0.50304   0.51684
 Alpha virt. eigenvalues --    0.52081   0.53400   0.53620   0.54602   0.55314
 Alpha virt. eigenvalues --    0.55656   0.55961   0.57668   0.58471   0.59367
 Alpha virt. eigenvalues --    0.60004   0.60376   0.61216   0.62022   0.62330
 Alpha virt. eigenvalues --    0.62454   0.62898   0.62990   0.64344   0.64369
 Alpha virt. eigenvalues --    0.65332   0.66276   0.67390   0.69362   0.69508
 Alpha virt. eigenvalues --    0.72277   0.73572   0.75262   0.77037   0.77055
 Alpha virt. eigenvalues --    0.78025   0.81474   0.81661   0.82042   0.83371
 Alpha virt. eigenvalues --    0.84073   0.84269   0.84799   0.85050   0.86711
 Alpha virt. eigenvalues --    0.86884   0.88064   0.89087   0.90363   0.91473
 Alpha virt. eigenvalues --    0.92838   0.93114   0.95407   0.95726   0.96690
 Alpha virt. eigenvalues --    0.96797   0.98244   0.98717   0.99330   1.00011
 Alpha virt. eigenvalues --    1.04503   1.04931   1.06439   1.07536   1.09285
 Alpha virt. eigenvalues --    1.13637   1.14502   1.15732   1.16301   1.18313
 Alpha virt. eigenvalues --    1.20554   1.23194   1.25154   1.25803   1.26922
 Alpha virt. eigenvalues --    1.31173   1.31597   1.39707   1.41055   1.43311
 Alpha virt. eigenvalues --    1.44921   1.45508   1.47378   1.47600   1.48892
 Alpha virt. eigenvalues --    1.49879   1.50282   1.51154   1.51194   1.53795
 Alpha virt. eigenvalues --    1.57116   1.59742   1.64960   1.67712   1.71295
 Alpha virt. eigenvalues --    1.75688   1.77064   1.80707   1.81828   1.82718
 Alpha virt. eigenvalues --    1.83643   1.84464   1.84723   1.88420   1.91104
 Alpha virt. eigenvalues --    1.91364   1.91418   1.92667   1.93363   1.96044
 Alpha virt. eigenvalues --    1.96254   1.98205   2.00600   2.00884   2.02230
 Alpha virt. eigenvalues --    2.05799   2.05804   2.10368   2.12747   2.12757
 Alpha virt. eigenvalues --    2.13928   2.16518   2.20120   2.21059   2.23300
 Alpha virt. eigenvalues --    2.23399   2.24364   2.25338   2.28087   2.28524
 Alpha virt. eigenvalues --    2.28703   2.30891   2.31023   2.32881   2.33571
 Alpha virt. eigenvalues --    2.37647   2.38079   2.40627   2.43421   2.43722
 Alpha virt. eigenvalues --    2.47712   2.48160   2.53941   2.60177   2.61581
 Alpha virt. eigenvalues --    2.61905   2.64651   2.66540   2.67459   2.70606
 Alpha virt. eigenvalues --    2.71282   2.73940   2.76565   2.77672   2.79582
 Alpha virt. eigenvalues --    2.80412   2.81293   2.82421   2.82957   2.93672
 Alpha virt. eigenvalues --    3.02772   3.09879   3.12142   3.41920   3.43334
          Condensed to atoms (all electrons):
               1          2          3          4          5          6
     1  C    4.699768   0.519933  -0.021100  -0.040385  -0.016571   0.545112
     2  C    0.519933   4.990476   0.520017  -0.024751  -0.061438  -0.015649
     3  C   -0.021100   0.520017   4.860298   0.552155  -0.025892  -0.041776
     4  C   -0.040385  -0.024751   0.552155   4.857903   0.520875  -0.018656
     5  C   -0.016571  -0.061438  -0.025892   0.520875   4.995848   0.514446
     6  C    0.545112  -0.015649  -0.041776  -0.018656   0.514446   4.722789
     7  C   -0.059922   0.008947   0.000001   0.007303  -0.069067   0.358951
     8  C   -0.006523  -0.000233   0.000042  -0.000149   0.000077  -0.041636
     9  C    0.007588   0.000132  -0.000015  -0.000031  -0.001012   0.002390
    10  C    0.000132  -0.000018   0.000007   0.000003  -0.000201   0.000615
    11  C   -0.000015   0.000007  -0.000000  -0.000002   0.000007  -0.000001
    12  C   -0.000031   0.000003  -0.000002  -0.000000   0.000001   0.000010
    13  C   -0.001012  -0.000201   0.000007   0.000001   0.000007   0.000027
    14  C    0.002391   0.000615  -0.000001   0.000010   0.000027  -0.004279
    15  C   -0.032827   0.001728  -0.000174   0.000023  -0.000265  -0.007112
    16  C    0.360257  -0.061285   0.007530  -0.000065   0.009044  -0.060628
    17  H   -0.040400   0.351230  -0.046620   0.004630   0.000694   0.005405
    18  H    0.003548  -0.039044   0.356717  -0.042507   0.004349   0.001034
    19  H    0.001049   0.004331  -0.042268   0.356353  -0.038980   0.003445
    20  H    0.004848   0.000716   0.004633  -0.045978   0.353034  -0.042315
    21  H   -0.010135  -0.000072   0.000019  -0.000221   0.004424  -0.027517
    22  H    0.004097  -0.000196   0.000009   0.000148  -0.006543  -0.027677
    23  H    0.000389   0.000005  -0.000000   0.000003  -0.000131   0.004416
    24  H   -0.000259   0.000007  -0.000002  -0.000029   0.002187  -0.003356
    25  H   -0.000005  -0.000000   0.000000   0.000002   0.000003  -0.000019
    26  H   -0.000000   0.000000   0.000000  -0.000000  -0.000000  -0.000000
    27  H   -0.000000  -0.000000  -0.000000   0.000000   0.000000   0.000000
    28  H    0.000147  -0.000000  -0.000000   0.000000   0.000000  -0.000002
    29  H   -0.003208  -0.000110   0.000007  -0.000001   0.000001   0.001294
    30  H    0.003299  -0.000076   0.000002  -0.000000   0.000005   0.000102
    31  H   -0.034655  -0.006119   0.000337   0.000007  -0.000193   0.004185
    32  H   -0.027816  -0.000057  -0.000259   0.000043  -0.000119  -0.003985
               7          8          9         10         11         12
     1  C   -0.059922  -0.006523   0.007588   0.000132  -0.000015  -0.000031
     2  C    0.008947  -0.000233   0.000132  -0.000018   0.000007   0.000003
     3  C    0.000001   0.000042  -0.000015   0.000007  -0.000000  -0.000002
     4  C    0.007303  -0.000149  -0.000031   0.000003  -0.000002  -0.000000
     5  C   -0.069067   0.000077  -0.001012  -0.000201   0.000007   0.000001
     6  C    0.358951  -0.041636   0.002390   0.000615  -0.000001   0.000010
     7  C    5.224772   0.309783  -0.032827   0.001728  -0.000174   0.000023
     8  C    0.309783   5.207442   0.360257  -0.061285   0.007530  -0.000065
     9  C   -0.032827   0.360257   4.699768   0.519933  -0.021100  -0.040385
    10  C    0.001728  -0.061285   0.519933   4.990476   0.520017  -0.024751
    11  C   -0.000174   0.007530  -0.021100   0.520017   4.860297   0.552155
    12  C    0.000023  -0.000065  -0.040385  -0.024751   0.552155   4.857903
    13  C   -0.000265   0.009044  -0.016571  -0.061438  -0.025892   0.520875
    14  C   -0.007112  -0.060628   0.545111  -0.015649  -0.041776  -0.018656
    15  C    0.001556  -0.016517  -0.059922   0.008947   0.000001   0.007303
    16  C   -0.016517   0.001913  -0.006523  -0.000233   0.000042  -0.000149
    17  H   -0.000172  -0.000000  -0.000005  -0.000000   0.000000   0.000002
    18  H    0.000009   0.000000  -0.000000   0.000000   0.000000  -0.000000
    19  H   -0.000190   0.000002  -0.000000  -0.000000  -0.000000   0.000000
    20  H   -0.010149   0.000167   0.000147  -0.000000  -0.000000   0.000000
    21  H    0.359803  -0.036311  -0.003208  -0.000110   0.000007  -0.000001
    22  H    0.356278  -0.031473   0.003299  -0.000076   0.000002  -0.000000
    23  H   -0.035668   0.350207  -0.027816  -0.000057  -0.000259   0.000043
    24  H   -0.031258   0.362401  -0.034655  -0.006119   0.000337   0.000007
    25  H    0.000230  -0.012103  -0.040400   0.351230  -0.046620   0.004630
    26  H    0.000002  -0.000178   0.003548  -0.039044   0.356717  -0.042507
    27  H   -0.000000   0.000009   0.001049   0.004331  -0.042268   0.356353
    28  H    0.000002  -0.000167   0.004848   0.000716   0.004633  -0.045978
    29  H   -0.004132   0.004864  -0.010135  -0.000072   0.000019  -0.000221
    30  H    0.000075   0.000073   0.004097  -0.000196   0.000009   0.000148
    31  H    0.000175  -0.000006  -0.000259   0.000007  -0.000002  -0.000029
    32  H    0.000549  -0.000342   0.000389   0.000005  -0.000000   0.000003
              13         14         15         16         17         18
     1  C   -0.001012   0.002391  -0.032827   0.360257  -0.040400   0.003548
     2  C   -0.000201   0.000615   0.001728  -0.061285   0.351230  -0.039044
     3  C    0.000007  -0.000001  -0.000174   0.007530  -0.046620   0.356717
     4  C    0.000001   0.000010   0.000023  -0.000065   0.004630  -0.042507
     5  C    0.000007   0.000027  -0.000265   0.009044   0.000694   0.004349
     6  C    0.000027  -0.004279  -0.007112  -0.060628   0.005405   0.001034
     7  C   -0.000265  -0.007112   0.001556  -0.016517  -0.000172   0.000009
     8  C    0.009044  -0.060628  -0.016517   0.001913  -0.000000   0.000000
     9  C   -0.016571   0.545111  -0.059922  -0.006523  -0.000005  -0.000000
    10  C   -0.061438  -0.015649   0.008947  -0.000233  -0.000000   0.000000
    11  C   -0.025892  -0.041776   0.000001   0.000042   0.000000   0.000000
    12  C    0.520875  -0.018656   0.007303  -0.000149   0.000002  -0.000000
    13  C    4.995848   0.514446  -0.069067   0.000077   0.000003  -0.000000
    14  C    0.514446   4.722789   0.358951  -0.041636  -0.000019  -0.000000
    15  C   -0.069067   0.358951   5.224772   0.309782   0.000230   0.000002
    16  C    0.000077  -0.041636   0.309782   5.207442  -0.012103  -0.000178
    17  H    0.000003  -0.000019   0.000230  -0.012103   0.616368  -0.005720
    18  H   -0.000000  -0.000000   0.000002  -0.000178  -0.005720   0.604330
    19  H    0.000000   0.000000  -0.000000   0.000009  -0.000197  -0.005406
    20  H    0.000000  -0.000002   0.000002  -0.000167   0.000020  -0.000199
    21  H    0.000001   0.001294  -0.004132   0.004864  -0.000005  -0.000000
    22  H    0.000005   0.000102   0.000075   0.000073   0.000003  -0.000000
    23  H   -0.000119  -0.003985   0.000549  -0.000342  -0.000000   0.000000
    24  H   -0.000193   0.004185   0.000175  -0.000006   0.000000  -0.000000
    25  H    0.000694   0.005405  -0.000172  -0.000000  -0.000000  -0.000000
    26  H    0.004349   0.001034   0.000009   0.000000  -0.000000  -0.000000
    27  H   -0.038980   0.003445  -0.000190   0.000002  -0.000000   0.000000
    28  H    0.353034  -0.042315  -0.010149   0.000167  -0.000003  -0.000000
    29  H    0.004424  -0.027517   0.359803  -0.036311  -0.000004  -0.000000
    30  H   -0.006543  -0.027677   0.356278  -0.031472  -0.000026  -0.000000
    31  H    0.002187  -0.003356  -0.031258   0.362401   0.008919  -0.000017
    32  H   -0.000131   0.004416  -0.035668   0.350207   0.000367   0.000003
              19         20         21         22         23         24
     1  C    0.001049   0.004848  -0.010135   0.004097   0.000389  -0.000259
     2  C    0.004331   0.000716  -0.000072  -0.000196   0.000005   0.000007
     3  C   -0.042268   0.004633   0.000019   0.000009  -0.000000  -0.000002
     4  C    0.356353  -0.045978  -0.000221   0.000148   0.000003  -0.000029
     5  C   -0.038980   0.353034   0.004424  -0.006543  -0.000131   0.002187
     6  C    0.003445  -0.042315  -0.027517  -0.027677   0.004416  -0.003356
     7  C   -0.000190  -0.010149   0.359803   0.356278  -0.035668  -0.031258
     8  C    0.000002   0.000167  -0.036311  -0.031473   0.350207   0.362401
     9  C   -0.000000   0.000147  -0.003208   0.003299  -0.027816  -0.034655
    10  C   -0.000000  -0.000000  -0.000110  -0.000076  -0.000057  -0.006119
    11  C   -0.000000  -0.000000   0.000007   0.000002  -0.000259   0.000337
    12  C    0.000000   0.000000  -0.000001  -0.000000   0.000043   0.000007
    13  C    0.000000   0.000000   0.000001   0.000005  -0.000119  -0.000193
    14  C    0.000000  -0.000002   0.001294   0.000102  -0.003985   0.004185
    15  C   -0.000000   0.000002  -0.004132   0.000075   0.000549   0.000175
    16  C    0.000009  -0.000167   0.004864   0.000073  -0.000342  -0.000006
    17  H   -0.000197   0.000020  -0.000005   0.000003  -0.000000   0.000000
    18  H   -0.005406  -0.000199  -0.000000  -0.000000   0.000000  -0.000000
    19  H    0.604404  -0.005545   0.000003  -0.000012  -0.000000   0.000000
    20  H   -0.005545   0.617951   0.000135   0.006345  -0.000028   0.000261
    21  H    0.000003   0.000135   0.601342  -0.035556  -0.008546   0.005403
    22  H   -0.000012   0.006345  -0.035556   0.594412   0.001770  -0.009380
    23  H   -0.000000  -0.000028  -0.008546   0.001770   0.603190  -0.035485
    24  H    0.000000   0.000261   0.005403  -0.009380  -0.035485   0.593183
    25  H   -0.000000  -0.000003  -0.000004  -0.000026   0.000367   0.008919
    26  H    0.000000  -0.000000  -0.000000  -0.000000   0.000003  -0.000017
    27  H   -0.000000  -0.000000   0.000000   0.000000  -0.000000  -0.000000
    28  H   -0.000000  -0.000000   0.000001  -0.000000   0.000001   0.000003
    29  H    0.000000   0.000001   0.002859   0.000269   0.002044  -0.000019
    30  H    0.000000  -0.000000   0.000269  -0.000005   0.000021   0.000000
    31  H   -0.000000   0.000003  -0.000019   0.000000  -0.000001   0.000001
    32  H   -0.000000   0.000001   0.002044   0.000021   0.000042  -0.000001
              25         26         27         28         29         30
     1  C   -0.000005  -0.000000  -0.000000   0.000147  -0.003208   0.003299
     2  C   -0.000000   0.000000  -0.000000  -0.000000  -0.000110  -0.000076
     3  C    0.000000   0.000000  -0.000000  -0.000000   0.000007   0.000002
     4  C    0.000002  -0.000000   0.000000   0.000000  -0.000001  -0.000000
     5  C    0.000003  -0.000000   0.000000   0.000000   0.000001   0.000005
     6  C   -0.000019  -0.000000   0.000000  -0.000002   0.001294   0.000102
     7  C    0.000230   0.000002  -0.000000   0.000002  -0.004132   0.000075
     8  C   -0.012103  -0.000178   0.000009  -0.000167   0.004864   0.000073
     9  C   -0.040400   0.003548   0.001049   0.004848  -0.010135   0.004097
    10  C    0.351230  -0.039044   0.004331   0.000716  -0.000072  -0.000196
    11  C   -0.046620   0.356717  -0.042268   0.004633   0.000019   0.000009
    12  C    0.004630  -0.042507   0.356353  -0.045978  -0.000221   0.000148
    13  C    0.000694   0.004349  -0.038980   0.353034   0.004424  -0.006543
    14  C    0.005405   0.001034   0.003445  -0.042315  -0.027517  -0.027677
    15  C   -0.000172   0.000009  -0.000190  -0.010149   0.359803   0.356278
    16  C   -0.000000   0.000000   0.000002   0.000167  -0.036311  -0.031472
    17  H   -0.000000  -0.000000  -0.000000  -0.000003  -0.000004  -0.000026
    18  H   -0.000000  -0.000000   0.000000  -0.000000  -0.000000  -0.000000
    19  H   -0.000000   0.000000  -0.000000  -0.000000   0.000000   0.000000
    20  H   -0.000003  -0.000000  -0.000000  -0.000000   0.000001  -0.000000
    21  H   -0.000004  -0.000000   0.000000   0.000001   0.002859   0.000269
    22  H   -0.000026  -0.000000   0.000000  -0.000000   0.000269  -0.000005
    23  H    0.000367   0.000003  -0.000000   0.000001   0.002044   0.000021
    24  H    0.008919  -0.000017  -0.000000   0.000003  -0.000019   0.000000
    25  H    0.616368  -0.005720  -0.000197   0.000020  -0.000005   0.000003
    26  H   -0.005720   0.604331  -0.005406  -0.000199  -0.000000  -0.000000
    27  H   -0.000197  -0.005406   0.604404  -0.005545   0.000003  -0.000012
    28  H    0.000020  -0.000199  -0.005545   0.617951   0.000135   0.006345
    29  H   -0.000005  -0.000000   0.000003   0.000135   0.601342  -0.035556
    30  H    0.000003  -0.000000  -0.000012   0.006345  -0.035556   0.594412
    31  H    0.000000  -0.000000   0.000000   0.000261   0.005403  -0.009380
    32  H   -0.000000   0.000000  -0.000000  -0.000028  -0.008546   0.001770
              31         32
     1  C   -0.034655  -0.027816
     2  C   -0.006119  -0.000057
     3  C    0.000337  -0.000259
     4  C    0.000007   0.000043
     5  C   -0.000193  -0.000119
     6  C    0.004185  -0.003985
     7  C    0.000175   0.000549
     8  C   -0.000006  -0.000342
     9  C   -0.000259   0.000389
    10  C    0.000007   0.000005
    11  C   -0.000002  -0.000000
    12  C   -0.000029   0.000003
    13  C    0.002187  -0.000131
    14  C   -0.003356   0.004416
    15  C   -0.031258  -0.035668
    16  C    0.362401   0.350207
    17  H    0.008919   0.000367
    18  H   -0.000017   0.000003
    19  H   -0.000000  -0.000000
    20  H    0.000003   0.000001
    21  H   -0.000019   0.002044
    22  H    0.000000   0.000021
    23  H   -0.000001   0.000042
    24  H    0.000001  -0.000001
    25  H    0.000000  -0.000000
    26  H   -0.000000   0.000000
    27  H    0.000000  -0.000000
    28  H    0.000261  -0.000028
    29  H    0.005403  -0.008546
    30  H   -0.009380   0.001770
    31  H    0.593183  -0.035485
    32  H   -0.035485   0.603190
 Mulliken charges:
               1
     1  C    0.142308
     2  C   -0.188899
     3  C   -0.123674
     4  C   -0.126683
     5  C   -0.184617
     6  C    0.130389
     7  C   -0.362737
     8  C   -0.346193
     9  C    0.142308
    10  C   -0.188899
    11  C   -0.123674
    12  C   -0.126683
    13  C   -0.184617
    14  C    0.130389
    15  C   -0.362737
    16  C   -0.346194
    17  H    0.117404
    18  H    0.123080
    19  H    0.123002
    20  H    0.116124
    21  H    0.143370
    22  H    0.144036
    23  H    0.149384
    24  H    0.143706
    25  H    0.117404
    26  H    0.123080
    27  H    0.123002
    28  H    0.116123
    29  H    0.143371
    30  H    0.144036
    31  H    0.143705
    32  H    0.149384
 Sum of Mulliken charges =  -0.00000
 Mulliken charges with hydrogens summed into heavy atoms:
               1
     1  C    0.142308
     2  C   -0.071494
     3  C   -0.000594
     4  C   -0.003681
     5  C   -0.068493
     6  C    0.130389
     7  C   -0.075330
     8  C   -0.053103
     9  C    0.142308
    10  C   -0.071495
    11  C   -0.000594
    12  C   -0.003681
    13  C   -0.068494
    14  C    0.130389
    15  C   -0.075330
    16  C   -0.053104
 Electronic spatial extent (au):  <R**2>=           3192.9042
 Charge=             -0.0000 electrons
 Dipole moment (field-independent basis, Debye):
    X=             -0.0000    Y=              0.0000    Z=              0.5426  Tot=              0.5426
 Quadrupole moment (field-independent basis, Debye-Ang):
   XX=            -96.3237   YY=            -86.4651   ZZ=            -90.5351
   XY=             -1.6212   XZ=              0.0000   YZ=             -0.0000
 Traceless Quadrupole moment (field-independent basis, Debye-Ang):
   XX=             -5.2158   YY=              4.6429   ZZ=              0.5729
   XY=             -1.6212   XZ=              0.0000   YZ=             -0.0000
 Octapole moment (field-independent basis, Debye-Ang**2):
  XXX=             -0.0001  YYY=             -0.0000  ZZZ=              1.7527  XYY=             -0.0000
  XXY=             -0.0001  XXZ=            -23.9253  XZZ=              0.0000  YZZ=              0.0000
  YYZ=             -2.2917  XYZ=             -1.9475
 Hexadecapole moment (field-independent basis, Debye-Ang**3):
 XXXX=          -2576.8331 YYYY=           -950.5588 ZZZZ=           -918.3248 XXXY=            -30.9063
 XXXZ=              0.0003 YYYX=            -11.2275 YYYZ=             -0.0001 ZZZX=             -0.0002
 ZZZY=             -0.0001 XXYY=           -552.8732 XXZZ=           -515.2649 YYZZ=           -313.5232
 XXYZ=              0.0001 YYXZ=              0.0001 ZZXY=              6.7189
 N-N= 1.045559024921D+03 E-N=-3.526652136152D+03  KE= 6.153257210669D+02
 Calling FoFJK, ICntrl=      2127 FMM=F ISym2X=0 I1Cent= 0 IOpClX= 0 NMat=1 NMatS=1 NMatT=0.
 ***** Axes restored to original set *****
 -------------------------------------------------------------------
 Center     Atomic                   Forces (Hartrees/Bohr)
 Number     Number              X              Y              Z
 -------------------------------------------------------------------
      1        6           0.000102461    0.000282294   -0.000024880
      2        6           0.000100155   -0.000045610    0.000085668
      3        6          -0.000066203   -0.000099244   -0.000109966
      4        6          -0.000079041    0.000121943   -0.000082847
      5        6           0.000068079    0.000043509    0.000135266
      6        6           0.000184265   -0.000200770   -0.000097007
      7        6           0.000047772   -0.000174114   -0.000240893
      8        6          -0.000036529   -0.000321961   -0.000046292
      9        6          -0.000102668   -0.000282652   -0.000024813
     10        6          -0.000100078    0.000045941    0.000085604
     11        6           0.000066113    0.000099047   -0.000109859
     12        6           0.000079102   -0.000122479   -0.000082675
     13        6          -0.000068262   -0.000043382    0.000135187
     14        6          -0.000184345    0.000201196   -0.000096467
     15        6          -0.000047217    0.000174288   -0.000241673
     16        6           0.000036196    0.000321304   -0.000045516
     17        1           0.000044794   -0.000415533   -0.000055946
     18        1          -0.000222651   -0.000217149   -0.000354443
     19        1          -0.000271103    0.000262930   -0.000285147
     20        1          -0.000050324    0.000432546    0.000068830
     21        1           0.000073931   -0.000234803    0.000483301
     22        1          -0.000228394    0.000582783    0.000169962
     23        1           0.000139067    0.000135024    0.000571970
     24        1          -0.000100648    0.000558670   -0.000217619
     25        1          -0.000044841    0.000415552   -0.000055882
     26        1           0.000222787    0.000217357   -0.000354727
     27        1           0.000271076   -0.000262761   -0.000285151
     28        1           0.000050388   -0.000432634    0.000068823
     29        1          -0.000073974    0.000234892    0.000483415
     30        1           0.000228204   -0.000582804    0.000170014
     31        1           0.000100744   -0.000558518   -0.000217681
     32        1          -0.000138857   -0.000134861    0.000571445
 -------------------------------------------------------------------
 Cartesian Forces:  Max     0.000582804 RMS     0.000238852

 GradGradGradGradGradGradGradGradGradGradGradGradGradGradGradGradGradGrad
 Berny optimization.
 FormGI is forming the generalized inverse of G from B-inverse, IUseBI=4.
 Internal  Forces:  Max     0.000638259 RMS     0.000216733
 Search for a local minimum.
 Step number   1 out of a maximum of  192
 All quantities printed in internal units (Hartrees-Bohrs-Radians)
 Mixed Optimization -- En-DIIS/RFO-DIIS
 Second derivative matrix not updated -- first step.
 ITU=  0
     Eigenvalues ---    0.00316   0.00578   0.01111   0.01237   0.01265
     Eigenvalues ---    0.01367   0.01570   0.01614   0.02113   0.02113
     Eigenvalues ---    0.02119   0.02119   0.02127   0.02127   0.02165
     Eigenvalues ---    0.02165   0.02171   0.02171   0.02174   0.02174
     Eigenvalues ---    0.02498   0.03085   0.03438   0.04304   0.04943
     Eigenvalues ---    0.05276   0.05336   0.05812   0.07093   0.09369
     Eigenvalues ---    0.09398   0.09615   0.09676   0.10189   0.10200
     Eigenvalues ---    0.12009   0.13592   0.16000   0.16000   0.16000
     Eigenvalues ---    0.16000   0.16000   0.16000   0.16000   0.16000
     Eigenvalues ---    0.17229   0.18202   0.22000   0.22000   0.22373
     Eigenvalues ---    0.22580   0.22830   0.23586   0.24206   0.24593
     Eigenvalues ---    0.24630   0.25885   0.26787   0.28765   0.29444
     Eigenvalues ---    0.30394   0.30764   0.33724   0.33724   0.34168
     Eigenvalues ---    0.34168   0.34245   0.34245   0.34438   0.34438
     Eigenvalues ---    0.35078   0.35078   0.35122   0.35122   0.35257
     Eigenvalues ---    0.35257   0.35259   0.35259   0.38530   0.41101
     Eigenvalues ---    0.41705   0.41715   0.44181   0.44879   0.45916
     Eigenvalues ---    0.45972   0.46130   0.46131   0.46670   0.46670
 RFO step:  Lambda=-2.69969449D-05 EMin= 3.15559163D-03
 Linear search not attempted -- first point.
 Iteration  1 RMS(Cart)=  0.00390232 RMS(Int)=  0.00000337
 Iteration  2 RMS(Cart)=  0.00000612 RMS(Int)=  0.00000089
 Iteration  3 RMS(Cart)=  0.00000000 RMS(Int)=  0.00000089
 Variable       Old X    -DE/DX   Delta X   Delta X   Delta X     New X
                                 (Linear)    (Quad)   (Total)
    R1        2.64825   0.00046   0.00000   0.00098   0.00098   2.64924
    R2        2.66660   0.00027   0.00000   0.00057   0.00057   2.66717
    R3        2.87621   0.00050   0.00000   0.00168   0.00168   2.87789
    R4        2.63470   0.00058   0.00000   0.00127   0.00127   2.63597
    R5        2.05477   0.00042   0.00000   0.00120   0.00120   2.05597
    R6        2.63285   0.00059   0.00000   0.00131   0.00131   2.63416
    R7        2.05260   0.00047   0.00000   0.00134   0.00134   2.05394
    R8        2.63406   0.00057   0.00000   0.00123   0.00123   2.63529
    R9        2.05257   0.00047   0.00000   0.00134   0.00134   2.05391
   R10        2.64575   0.00045   0.00000   0.00097   0.00097   2.64672
   R11        2.05548   0.00044   0.00000   0.00125   0.00125   2.05674
   R12        2.85679   0.00038   0.00000   0.00119   0.00120   2.85799
   R13        2.94761   0.00016   0.00000   0.00059   0.00059   2.94820
   R14        2.06597   0.00053   0.00000   0.00155   0.00155   2.06751
   R15        2.07047   0.00064   0.00000   0.00187   0.00187   2.07234
   R16        2.87622   0.00050   0.00000   0.00168   0.00168   2.87790
   R17        2.07799   0.00058   0.00000   0.00171   0.00171   2.07970
   R18        2.06918   0.00060   0.00000   0.00176   0.00176   2.07094
   R19        2.64825   0.00046   0.00000   0.00098   0.00098   2.64924
   R20        2.66661   0.00027   0.00000   0.00057   0.00057   2.66717
   R21        2.63470   0.00058   0.00000   0.00127   0.00127   2.63597
   R22        2.05477   0.00042   0.00000   0.00120   0.00120   2.05597
   R23        2.63285   0.00059   0.00000   0.00131   0.00131   2.63416
   R24        2.05260   0.00047   0.00000   0.00134   0.00134   2.05394
   R25        2.63406   0.00057   0.00000   0.00123   0.00123   2.63529
   R26        2.05257   0.00047   0.00000   0.00134   0.00134   2.05391
   R27        2.64575   0.00045   0.00000   0.00097   0.00097   2.64672
   R28        2.05548   0.00044   0.00000   0.00125   0.00125   2.05674
   R29        2.85680   0.00037   0.00000   0.00119   0.00119   2.85799
   R30        2.94761   0.00016   0.00000   0.00059   0.00059   2.94820
   R31        2.06597   0.00053   0.00000   0.00155   0.00155   2.06751
   R32        2.07047   0.00064   0.00000   0.00187   0.00187   2.07234
   R33        2.06918   0.00060   0.00000   0.00176   0.00176   2.07094
   R34        2.07799   0.00058   0.00000   0.00171   0.00171   2.07970
    A1        2.06756   0.00001   0.00000  -0.00006  -0.00006   2.06750
    A2        2.06449  -0.00008   0.00000  -0.00018  -0.00018   2.06432
    A3        2.15054   0.00007   0.00000   0.00024   0.00024   2.15078
    A4        2.12659   0.00004   0.00000   0.00016   0.00016   2.12675
    A5        2.07460  -0.00003   0.00000  -0.00012  -0.00012   2.07448
    A6        2.08199  -0.00001   0.00000  -0.00004  -0.00004   2.08195
    A7        2.08619  -0.00006   0.00000  -0.00015  -0.00015   2.08604
    A8        2.09400   0.00003   0.00000   0.00005   0.00005   2.09405
    A9        2.10299   0.00003   0.00000   0.00010   0.00010   2.10309
   A10        2.08227  -0.00007   0.00000  -0.00019  -0.00019   2.08208
   A11        2.10407   0.00004   0.00000   0.00013   0.00013   2.10420
   A12        2.09684   0.00003   0.00000   0.00006   0.00006   2.09691
   A13        2.12279   0.00003   0.00000   0.00009   0.00009   2.12288
   A14        2.08728  -0.00001   0.00000  -0.00005  -0.00005   2.08724
   A15        2.07311  -0.00001   0.00000  -0.00004  -0.00004   2.07307
   A16        2.08095   0.00006   0.00000   0.00016   0.00016   2.08110
   A17        2.11637   0.00005   0.00000   0.00015   0.00015   2.11652
   A18        2.08559  -0.00011   0.00000  -0.00028  -0.00028   2.08530
   A19        1.99392  -0.00016   0.00000  -0.00087  -0.00087   1.99306
   A20        1.91593   0.00012   0.00000   0.00103   0.00104   1.91697
   A21        1.90756   0.00011   0.00000   0.00086   0.00086   1.90842
   A22        1.92228  -0.00000   0.00000  -0.00032  -0.00032   1.92196
   A23        1.87411  -0.00005   0.00000  -0.00076  -0.00076   1.87335
   A24        1.84350  -0.00001   0.00000   0.00010   0.00010   1.84360
   A25        2.06388  -0.00007   0.00000  -0.00050  -0.00051   2.06337
   A26        1.88206  -0.00009   0.00000  -0.00064  -0.00064   1.88142
   A27        1.88300  -0.00005   0.00000  -0.00091  -0.00091   1.88210
   A28        1.91017   0.00017   0.00000   0.00191   0.00191   1.91208
   A29        1.86946   0.00006   0.00000   0.00022   0.00022   1.86968
   A30        1.84318  -0.00000   0.00000  -0.00007  -0.00008   1.84310
   A31        2.06449  -0.00008   0.00000  -0.00018  -0.00017   2.06432
   A32        2.15054   0.00007   0.00000   0.00024   0.00024   2.15078
   A33        2.06756   0.00001   0.00000  -0.00006  -0.00006   2.06750
   A34        2.12659   0.00004   0.00000   0.00016   0.00016   2.12675
   A35        2.07460  -0.00003   0.00000  -0.00012  -0.00012   2.07448
   A36        2.08199  -0.00001   0.00000  -0.00004  -0.00004   2.08195
   A37        2.08619  -0.00006   0.00000  -0.00015  -0.00015   2.08604
   A38        2.09400   0.00003   0.00000   0.00005   0.00005   2.09405
   A39        2.10299   0.00003   0.00000   0.00010   0.00010   2.10309
   A40        2.08227  -0.00007   0.00000  -0.00020  -0.00019   2.08208
   A41        2.10407   0.00004   0.00000   0.00013   0.00013   2.10420
   A42        2.09684   0.00003   0.00000   0.00006   0.00006   2.09691
   A43        2.12279   0.00003   0.00000   0.00009   0.00009   2.12288
   A44        2.08728  -0.00001   0.00000  -0.00005  -0.00005   2.08724
   A45        2.07311  -0.00001   0.00000  -0.00004  -0.00004   2.07307
   A46        2.08095   0.00006   0.00000   0.00016   0.00016   2.08110
   A47        2.11637   0.00005   0.00000   0.00015   0.00015   2.11652
   A48        2.08559  -0.00011   0.00000  -0.00028  -0.00028   2.08530
   A49        1.99392  -0.00016   0.00000  -0.00087  -0.00087   1.99306
   A50        1.91593   0.00012   0.00000   0.00103   0.00104   1.91697
   A51        1.90756   0.00011   0.00000   0.00086   0.00086   1.90842
   A52        1.92228  -0.00000   0.00000  -0.00032  -0.00032   1.92196
   A53        1.87411  -0.00005   0.00000  -0.00076  -0.00076   1.87335
   A54        1.84350  -0.00001   0.00000   0.00010   0.00010   1.84360
   A55        2.06388  -0.00007   0.00000  -0.00050  -0.00051   2.06337
   A56        1.86947   0.00006   0.00000   0.00022   0.00022   1.86968
   A57        1.91017   0.00017   0.00000   0.00191   0.00191   1.91208
   A58        1.88300  -0.00005   0.00000  -0.00091  -0.00091   1.88210
   A59        1.88206  -0.00009   0.00000  -0.00064  -0.00064   1.88142
   A60        1.84317  -0.00000   0.00000  -0.00007  -0.00007   1.84310
    D1       -0.00697   0.00000   0.00000  -0.00012  -0.00012  -0.00708
    D2        3.13698   0.00000   0.00000  -0.00010  -0.00010   3.13688
    D3        3.09891  -0.00000   0.00000   0.00011   0.00011   3.09903
    D4       -0.04032  -0.00000   0.00000   0.00012   0.00013  -0.04020
    D5        0.00715   0.00000   0.00000   0.00033   0.00033   0.00748
    D6       -3.10883  -0.00002   0.00000  -0.00060  -0.00060  -3.10944
    D7       -3.09685   0.00001   0.00000   0.00010   0.00010  -3.09676
    D8        0.07035  -0.00001   0.00000  -0.00083  -0.00084   0.06951
    D9        2.32582  -0.00004   0.00000  -0.00417  -0.00417   2.32164
   D10        0.19608   0.00004   0.00000  -0.00279  -0.00279   0.19329
   D11       -1.79410  -0.00007   0.00000  -0.00376  -0.00376  -1.79787
   D12       -0.85330  -0.00004   0.00000  -0.00394  -0.00394  -0.85724
   D13       -2.98304   0.00003   0.00000  -0.00256  -0.00256  -2.98560
   D14        1.30996  -0.00008   0.00000  -0.00353  -0.00353   1.30643
   D15        0.00238  -0.00000   0.00000  -0.00003  -0.00003   0.00235
   D16       -3.14007  -0.00000   0.00000   0.00004   0.00004  -3.14003
   D17       -3.14158  -0.00000   0.00000  -0.00005  -0.00005   3.14156
   D18       -0.00085   0.00000   0.00000   0.00003   0.00003  -0.00082
   D19        0.00200  -0.00000   0.00000  -0.00003  -0.00003   0.00197
   D20       -3.13902   0.00000   0.00000   0.00016   0.00016  -3.13886
   D21       -3.13873  -0.00000   0.00000  -0.00011  -0.00011  -3.13884
   D22        0.00344   0.00000   0.00000   0.00008   0.00008   0.00352
   D23       -0.00167   0.00001   0.00000   0.00026   0.00026  -0.00141
   D24       -3.14026   0.00001   0.00000   0.00038   0.00038  -3.13988
   D25        3.13935   0.00000   0.00000   0.00007   0.00007   3.13942
   D26        0.00076   0.00000   0.00000   0.00019   0.00019   0.00095
   D27       -0.00299  -0.00001   0.00000  -0.00041  -0.00041  -0.00340
   D28        3.11345   0.00001   0.00000   0.00051   0.00051   3.11397
   D29        3.13563  -0.00001   0.00000  -0.00053  -0.00053   3.13510
   D30       -0.03111   0.00001   0.00000   0.00039   0.00039  -0.03072
   D31        1.50155   0.00003   0.00000  -0.00082  -0.00082   1.50073
   D32       -0.66745   0.00006   0.00000  -0.00057  -0.00057  -0.66802
   D33       -2.68177  -0.00006   0.00000  -0.00175  -0.00175  -2.68352
   D34       -1.61437   0.00001   0.00000  -0.00176  -0.00176  -1.61613
   D35        2.49982   0.00004   0.00000  -0.00151  -0.00151   2.49831
   D36        0.48550  -0.00008   0.00000  -0.00269  -0.00269   0.48281
   D37       -0.61052   0.00003   0.00000   0.00509   0.00509  -0.60543
   D38       -2.78766  -0.00006   0.00000   0.00342   0.00342  -2.78424
   D39        1.51234   0.00001   0.00000   0.00427   0.00427   1.51661
   D40        1.55509   0.00007   0.00000   0.00556   0.00556   1.56065
   D41       -0.62205  -0.00002   0.00000   0.00389   0.00389  -0.61816
   D42       -2.60524   0.00005   0.00000   0.00474   0.00474  -2.60050
   D43       -2.72895   0.00003   0.00000   0.00510   0.00510  -2.72385
   D44        1.37709  -0.00007   0.00000   0.00344   0.00344   1.38053
   D45       -0.60609   0.00001   0.00000   0.00428   0.00428  -0.60181
   D46        2.32582  -0.00004   0.00000  -0.00417  -0.00417   2.32165
   D47       -0.85330  -0.00004   0.00000  -0.00394  -0.00394  -0.85724
   D48       -1.79410  -0.00007   0.00000  -0.00376  -0.00376  -1.79786
   D49        1.30997  -0.00008   0.00000  -0.00353  -0.00353   1.30643
   D50        0.19608   0.00004   0.00000  -0.00279  -0.00279   0.19329
   D51       -2.98303   0.00003   0.00000  -0.00256  -0.00256  -2.98560
   D52        3.09891  -0.00000   0.00000   0.00011   0.00011   3.09903
   D53       -0.04032  -0.00000   0.00000   0.00012   0.00012  -0.04020
   D54       -0.00697   0.00000   0.00000  -0.00011  -0.00011  -0.00708
   D55        3.13698   0.00000   0.00000  -0.00010  -0.00010   3.13688
   D56       -3.09685   0.00001   0.00000   0.00010   0.00010  -3.09676
   D57        0.07034  -0.00001   0.00000  -0.00083  -0.00083   0.06951
   D58        0.00715   0.00000   0.00000   0.00033   0.00033   0.00748
   D59       -3.10884  -0.00002   0.00000  -0.00060  -0.00060  -3.10944
   D60        0.00238  -0.00000   0.00000  -0.00004  -0.00004   0.00234
   D61       -3.14007  -0.00000   0.00000   0.00004   0.00004  -3.14003
   D62       -3.14158  -0.00000   0.00000  -0.00005  -0.00005   3.14156
   D63       -0.00085   0.00000   0.00000   0.00003   0.00003  -0.00082
   D64        0.00200  -0.00000   0.00000  -0.00003  -0.00003   0.00197
   D65       -3.13902   0.00000   0.00000   0.00016   0.00016  -3.13886
   D66       -3.13873  -0.00000   0.00000  -0.00011  -0.00011  -3.13884
   D67        0.00344   0.00000   0.00000   0.00008   0.00008   0.00352
   D68       -0.00166   0.00001   0.00000   0.00026   0.00026  -0.00141
   D69       -3.14026   0.00001   0.00000   0.00038   0.00038  -3.13988
   D70        3.13935   0.00000   0.00000   0.00007   0.00007   3.13942
   D71        0.00076   0.00000   0.00000   0.00019   0.00019   0.00095
   D72       -0.00299  -0.00001   0.00000  -0.00041  -0.00041  -0.00340
   D73        3.11345   0.00001   0.00000   0.00051   0.00051   3.11397
   D74        3.13563  -0.00001   0.00000  -0.00053  -0.00053   3.13510
   D75       -0.03111   0.00001   0.00000   0.00039   0.00039  -0.03072
   D76        1.50155   0.00003   0.00000  -0.00082  -0.00082   1.50073
   D77       -0.66745   0.00006   0.00000  -0.00057  -0.00057  -0.66802
   D78       -2.68177  -0.00006   0.00000  -0.00175  -0.00175  -2.68352
   D79       -1.61437   0.00001   0.00000  -0.00176  -0.00176  -1.61613
   D80        2.49981   0.00004   0.00000  -0.00151  -0.00151   2.49831
   D81        0.48550  -0.00008   0.00000  -0.00269  -0.00269   0.48281
   D82       -0.61051   0.00003   0.00000   0.00509   0.00509  -0.60543
   D83        1.51235   0.00001   0.00000   0.00427   0.00427   1.51661
   D84       -2.78765  -0.00006   0.00000   0.00342   0.00342  -2.78423
   D85        1.55509   0.00007   0.00000   0.00556   0.00556   1.56065
   D86       -2.60523   0.00005   0.00000   0.00474   0.00474  -2.60049
   D87       -0.62205  -0.00002   0.00000   0.00389   0.00389  -0.61816
   D88       -2.72895   0.00003   0.00000   0.00510   0.00510  -2.72385
   D89       -0.60609   0.00001   0.00000   0.00428   0.00428  -0.60181
   D90        1.37710  -0.00007   0.00000   0.00343   0.00343   1.38053
         Item               Value     Threshold  Converged?
 Maximum Force            0.000638     0.000450     NO 
 RMS     Force            0.000217     0.000300     YES
 Maximum Displacement     0.011394     0.001800     NO 
 RMS     Displacement     0.003903     0.001200     NO 
 Predicted change in Energy=-1.350640D-05
 GradGradGradGradGradGradGradGradGradGradGradGradGradGradGradGradGradGrad

                          Input orientation:                          
 ---------------------------------------------------------------------
 Center     Atomic      Atomic             Coordinates (Angstroms)
 Number     Number       Type             X           Y           Z
 ---------------------------------------------------------------------
      1          6           0       -1.424619   -0.834970    0.337318
      2          6           0       -2.099814   -1.434701   -0.734971
      3          6           0       -2.907175   -0.697589   -1.601323
      4          6           0       -3.050918    0.675007   -1.405419
      5          6           0       -2.381458    1.286872   -0.346092
      6          6           0       -1.567967    0.556001    0.528946
      7          6           0       -0.835865    1.274894    1.640037
      8          6           0        0.610055    1.725779    1.265880
      9          6           0        1.424618    0.834968    0.337323
     10          6           0        2.099815    1.434705   -0.734961
     11          6           0        2.907177    0.697598   -1.601316
     12          6           0        3.050919   -0.674999   -1.405420
     13          6           0        2.381457   -1.286870   -0.346098
     14          6           0        1.567966   -0.556005    0.528943
     15          6           0        0.835864   -1.274904    1.640030
     16          6           0       -0.610057   -1.725786    1.265871
     17          1           0       -1.990346   -2.505794   -0.891383
     18          1           0       -3.417949   -1.194104   -2.422252
[...]
 Alpha virt. eigenvalues --    1.57058   1.59670   1.65081   1.67625   1.71287
 Alpha virt. eigenvalues --    1.75682   1.77003   1.80654   1.81783   1.82672
 Alpha virt. eigenvalues --    1.83586   1.84435   1.84679   1.88383   1.91013
 Alpha virt. eigenvalues --    1.91305   1.91313   1.92574   1.93281   1.95990
 Alpha virt. eigenvalues --    1.96237   1.98123   2.00527   2.00862   2.02202
 Alpha virt. eigenvalues --    2.05705   2.05757   2.10314   2.12661   2.12672
 Alpha virt. eigenvalues --    2.13846   2.16441   2.20032   2.20985   2.23260
 Alpha virt. eigenvalues --    2.23382   2.24309   2.25245   2.28066   2.28505
 Alpha virt. eigenvalues --    2.28661   2.30778   2.30955   2.32796   2.33522
 Alpha virt. eigenvalues --    2.37568   2.38017   2.40518   2.43304   2.43641
 Alpha virt. eigenvalues --    2.47639   2.47985   2.53857   2.60098   2.61519
 Alpha virt. eigenvalues --    2.61839   2.64592   2.66463   2.67359   2.70542
 Alpha virt. eigenvalues --    2.71265   2.73840   2.76458   2.77599   2.79478
 Alpha virt. eigenvalues --    2.80322   2.81218   2.82342   2.82859   2.93588
 Alpha virt. eigenvalues --    3.02785   3.09776   3.12072   3.41730   3.43164
          Condensed to atoms (all electrons):
               1          2          3          4          5          6
     1  C    4.699697   0.519988  -0.021199  -0.040252  -0.016698   0.544994
     2  C    0.519988   4.990320   0.519881  -0.024802  -0.061259  -0.015762
     3  C   -0.021199   0.519881   4.860810   0.551889  -0.025951  -0.041654
     4  C   -0.040252  -0.024802   0.551889   4.858329   0.520719  -0.018705
     5  C   -0.016698  -0.061259  -0.025951   0.520719   4.996001   0.514337
     6  C    0.544994  -0.015762  -0.041654  -0.018705   0.514337   4.722631
     7  C   -0.059811   0.008917   0.000000   0.007275  -0.068922   0.358912
     8  C   -0.006547  -0.000234   0.000042  -0.000149   0.000096  -0.041648
     9  C    0.007582   0.000134  -0.000015  -0.000032  -0.001011   0.002375
    10  C    0.000134  -0.000019   0.000007   0.000004  -0.000201   0.000624
    11  C   -0.000015   0.000007  -0.000000  -0.000002   0.000008  -0.000001
    12  C   -0.000032   0.000004  -0.000002  -0.000000   0.000001   0.000010
    13  C   -0.001011  -0.000201   0.000008   0.000001   0.000007   0.000028
    14  C    0.002375   0.000624  -0.000001   0.000010   0.000028  -0.004325
    15  C   -0.032925   0.001698  -0.000173   0.000023  -0.000264  -0.007070
    16  C    0.360123  -0.061085   0.007502  -0.000067   0.009012  -0.060472
    17  H   -0.040282   0.351148  -0.046531   0.004610   0.000691   0.005386
    18  H    0.003533  -0.038959   0.356651  -0.042413   0.004329   0.001028
    19  H    0.001043   0.004310  -0.042173   0.356289  -0.038896   0.003430
    20  H    0.004829   0.000712   0.004614  -0.045881   0.352986  -0.042234
    21  H   -0.010122  -0.000071   0.000018  -0.000219   0.004403  -0.027432
    22  H    0.004076  -0.000195   0.000009   0.000148  -0.006507  -0.027626
    23  H    0.000392   0.000005  -0.000000   0.000003  -0.000130   0.004396
    24  H   -0.000257   0.000007  -0.000002  -0.000028   0.002169  -0.003315
    25  H   -0.000005  -0.000000   0.000000   0.000002   0.000004  -0.000019
    26  H   -0.000000   0.000000   0.000000  -0.000000  -0.000000  -0.000000
    27  H   -0.000000  -0.000000  -0.000000   0.000000   0.000000   0.000000
    28  H    0.000147  -0.000000  -0.000000   0.000000   0.000000  -0.000002
    29  H   -0.003180  -0.000110   0.000007  -0.000001   0.000002   0.001306
    30  H    0.003289  -0.000075   0.000002  -0.000000   0.000005   0.000099
    31  H   -0.034601  -0.006087   0.000335   0.000007  -0.000191   0.004171
    32  H   -0.027696  -0.000018  -0.000256   0.000042  -0.000118  -0.003990
               7          8          9         10         11         12
     1  C   -0.059811  -0.006547   0.007582   0.000134  -0.000015  -0.000032
     2  C    0.008917  -0.000234   0.000134  -0.000019   0.000007   0.000004
     3  C    0.000000   0.000042  -0.000015   0.000007  -0.000000  -0.000002
     4  C    0.007275  -0.000149  -0.000032   0.000004  -0.000002  -0.000000
     5  C   -0.068922   0.000096  -0.001011  -0.000201   0.000008   0.000001
     6  C    0.358912  -0.041648   0.002375   0.000624  -0.000001   0.000010
     7  C    5.225048   0.309350  -0.032925   0.001698  -0.000173   0.000023
     8  C    0.309350   5.207806   0.360123  -0.061085   0.007502  -0.000067
     9  C   -0.032925   0.360123   4.699697   0.519988  -0.021199  -0.040252
    10  C    0.001698  -0.061085   0.519988   4.990320   0.519881  -0.024802
    11  C   -0.000173   0.007502  -0.021199   0.519881   4.860810   0.551889
    12  C    0.000023  -0.000067  -0.040252  -0.024802   0.551889   4.858329
    13  C   -0.000264   0.009012  -0.016698  -0.061259  -0.025951   0.520719
    14  C   -0.007070  -0.060472   0.544994  -0.015762  -0.041654  -0.018705
    15  C    0.001541  -0.016472  -0.059811   0.008917   0.000000   0.007275
    16  C   -0.016472   0.001928  -0.006547  -0.000234   0.000042  -0.000149
    17  H   -0.000171  -0.000000  -0.000005  -0.000000   0.000000   0.000002
    18  H    0.000009   0.000000  -0.000000   0.000000   0.000000  -0.000000
    19  H   -0.000189   0.000002  -0.000000  -0.000000  -0.000000   0.000000
    20  H   -0.010109   0.000168   0.000147  -0.000000  -0.000000   0.000000
    21  H    0.359682  -0.036291  -0.003180  -0.000110   0.000007  -0.000001
    22  H    0.356299  -0.031526   0.003289  -0.000075   0.000002  -0.000000
    23  H   -0.035752   0.350177  -0.027696  -0.000018  -0.000256   0.000042
    24  H   -0.031244   0.362309  -0.034601  -0.006087   0.000335   0.000007
    25  H    0.000230  -0.012059  -0.040282   0.351148  -0.046531   0.004610
    26  H    0.000002  -0.000177   0.003533  -0.038959   0.356651  -0.042413
    27  H   -0.000000   0.000009   0.001043   0.004310  -0.042173   0.356289
    28  H    0.000002  -0.000166   0.004829   0.000712   0.004614  -0.045881
    29  H   -0.004099   0.004877  -0.010122  -0.000071   0.000018  -0.000219
    30  H    0.000073   0.000071   0.004076  -0.000195   0.000009   0.000148
    31  H    0.000176  -0.000006  -0.000257   0.000007  -0.000002  -0.000028
    32  H    0.000547  -0.000345   0.000392   0.000005  -0.000000   0.000003
              13         14         15         16         17         18
     1  C   -0.001011   0.002375  -0.032925   0.360123  -0.040282   0.003533
     2  C   -0.000201   0.000624   0.001698  -0.061085   0.351148  -0.038959
     3  C    0.000008  -0.000001  -0.000173   0.007502  -0.046531   0.356651
     4  C    0.000001   0.000010   0.000023  -0.000067   0.004610  -0.042413
     5  C    0.000007   0.000028  -0.000264   0.009012   0.000691   0.004329
     6  C    0.000028  -0.004325  -0.007070  -0.060472   0.005386   0.001028
     7  C   -0.000264  -0.007070   0.001541  -0.016472  -0.000171   0.000009
     8  C    0.009012  -0.060472  -0.016472   0.001928  -0.000000   0.000000
     9  C   -0.016698   0.544994  -0.059811  -0.006547  -0.000005  -0.000000
    10  C   -0.061259  -0.015762   0.008917  -0.000234  -0.000000   0.000000
    11  C   -0.025951  -0.041654   0.000000   0.000042   0.000000   0.000000
    12  C    0.520719  -0.018705   0.007275  -0.000149   0.000002  -0.000000
    13  C    4.996001   0.514337  -0.068922   0.000096   0.000004  -0.000000
    14  C    0.514337   4.722631   0.358912  -0.041648  -0.000019  -0.000000
    15  C   -0.068922   0.358912   5.225048   0.309350   0.000230   0.000002
    16  C    0.000096  -0.041648   0.309350   5.207806  -0.012059  -0.000177
    17  H    0.000004  -0.000019   0.000230  -0.012059   0.616107  -0.005690
    18  H   -0.000000  -0.000000   0.000002  -0.000177  -0.005690   0.604086
    19  H    0.000000   0.000000  -0.000000   0.000009  -0.000195  -0.005373
    20  H    0.000000  -0.000002   0.000002  -0.000166   0.000020  -0.000198
    21  H    0.000002   0.001306  -0.004099   0.004877  -0.000005  -0.000000
    22  H    0.000005   0.000099   0.000073   0.000071   0.000003  -0.000000
    23  H   -0.000118  -0.003990   0.000547  -0.000345  -0.000000   0.000000
    24  H   -0.000191   0.004171   0.000176  -0.000006   0.000000  -0.000000
    25  H    0.000691   0.005386  -0.000171  -0.000000  -0.000000  -0.000000
    26  H    0.004329   0.001028   0.000009   0.000000  -0.000000  -0.000000
    27  H   -0.038896   0.003430  -0.000189   0.000002  -0.000000   0.000000
    28  H    0.352986  -0.042234  -0.010109   0.000168  -0.000003  -0.000000
    29  H    0.004403  -0.027432   0.359682  -0.036291  -0.000004  -0.000000
    30  H   -0.006507  -0.027626   0.356299  -0.031526  -0.000027  -0.000000
    31  H    0.002169  -0.003315  -0.031244   0.362309   0.008914  -0.000017
    32  H   -0.000130   0.004396  -0.035752   0.350177   0.000359   0.000003
              19         20         21         22         23         24
     1  C    0.001043   0.004829  -0.010122   0.004076   0.000392  -0.000257
     2  C    0.004310   0.000712  -0.000071  -0.000195   0.000005   0.000007
     3  C   -0.042173   0.004614   0.000018   0.000009  -0.000000  -0.000002
     4  C    0.356289  -0.045881  -0.000219   0.000148   0.000003  -0.000028
     5  C   -0.038896   0.352986   0.004403  -0.006507  -0.000130   0.002169
     6  C    0.003430  -0.042234  -0.027432  -0.027626   0.004396  -0.003315
     7  C   -0.000189  -0.010109   0.359682   0.356299  -0.035752  -0.031244
     8  C    0.000002   0.000168  -0.036291  -0.031526   0.350177   0.362309
     9  C   -0.000000   0.000147  -0.003180   0.003289  -0.027696  -0.034601
    10  C   -0.000000  -0.000000  -0.000110  -0.000075  -0.000018  -0.006087
    11  C   -0.000000  -0.000000   0.000007   0.000002  -0.000256   0.000335
    12  C    0.000000   0.000000  -0.000001  -0.000000   0.000042   0.000007
    13  C    0.000000   0.000000   0.000002   0.000005  -0.000118  -0.000191
    14  C    0.000000  -0.000002   0.001306   0.000099  -0.003990   0.004171
    15  C   -0.000000   0.000002  -0.004099   0.000073   0.000547   0.000176
    16  C    0.000009  -0.000166   0.004877   0.000071  -0.000345  -0.000006
    17  H   -0.000195   0.000020  -0.000005   0.000003  -0.000000   0.000000
    18  H   -0.005373  -0.000198  -0.000000  -0.000000   0.000000  -0.000000
    19  H    0.604157  -0.005515   0.000003  -0.000012  -0.000000   0.000000
    20  H   -0.005515   0.617707   0.000133   0.006329  -0.000027   0.000255
    21  H    0.000003   0.000133   0.601384  -0.035495  -0.008573   0.005386
    22  H   -0.000012   0.006329  -0.035495   0.594407   0.001811  -0.009408
    23  H   -0.000000  -0.000027  -0.008573   0.001811   0.603286  -0.035445
    24  H    0.000000   0.000255   0.005386  -0.009408  -0.035445   0.593330
    25  H   -0.000000  -0.000003  -0.000004  -0.000027   0.000359   0.008914
    26  H    0.000000  -0.000000  -0.000000  -0.000000   0.000003  -0.000017
    27  H   -0.000000  -0.000000   0.000000   0.000000  -0.000000  -0.000000
    28  H   -0.000000  -0.000000   0.000001  -0.000000   0.000001   0.000003
    29  H    0.000000   0.000001   0.002851   0.000264   0.002069  -0.000017
    30  H    0.000000  -0.000000   0.000264  -0.000005   0.000021   0.000000
    31  H   -0.000000   0.000003  -0.000017   0.000000  -0.000001   0.000001
    32  H   -0.000000   0.000001   0.002069   0.000021   0.000043  -0.000001
              25         26         27         28         29         30
     1  C   -0.000005  -0.000000  -0.000000   0.000147  -0.003180   0.003289
     2  C   -0.000000   0.000000  -0.000000  -0.000000  -0.000110  -0.000075
     3  C    0.000000   0.000000  -0.000000  -0.000000   0.000007   0.000002
     4  C    0.000002  -0.000000   0.000000   0.000000  -0.000001  -0.000000
     5  C    0.000004  -0.000000   0.000000   0.000000   0.000002   0.000005
     6  C   -0.000019  -0.000000   0.000000  -0.000002   0.001306   0.000099
     7  C    0.000230   0.000002  -0.000000   0.000002  -0.004099   0.000073
     8  C   -0.012059  -0.000177   0.000009  -0.000166   0.004877   0.000071
     9  C   -0.040282   0.003533   0.001043   0.004829  -0.010122   0.004076
    10  C    0.351148  -0.038959   0.004310   0.000712  -0.000071  -0.000195
    11  C   -0.046531   0.356651  -0.042173   0.004614   0.000018   0.000009
    12  C    0.004610  -0.042413   0.356289  -0.045881  -0.000219   0.000148
    13  C    0.000691   0.004329  -0.038896   0.352986   0.004403  -0.006507
    14  C    0.005386   0.001028   0.003430  -0.042234  -0.027432  -0.027626
    15  C   -0.000171   0.000009  -0.000189  -0.010109   0.359682   0.356299
    16  C   -0.000000   0.000000   0.000002   0.000168  -0.036291  -0.031526
    17  H   -0.000000  -0.000000  -0.000000  -0.000003  -0.000004  -0.000027
    18  H   -0.000000  -0.000000   0.000000  -0.000000  -0.000000  -0.000000
    19  H   -0.000000   0.000000  -0.000000  -0.000000   0.000000   0.000000
    20  H   -0.000003  -0.000000  -0.000000  -0.000000   0.000001  -0.000000
    21  H   -0.000004  -0.000000   0.000000   0.000001   0.002851   0.000264
    22  H   -0.000027  -0.000000   0.000000  -0.000000   0.000264  -0.000005
    23  H    0.000359   0.000003  -0.000000   0.000001   0.002069   0.000021
    24  H    0.008914  -0.000017  -0.000000   0.000003  -0.000017   0.000000
    25  H    0.616107  -0.005690  -0.000195   0.000020  -0.000005   0.000003
    26  H   -0.005690   0.604086  -0.005373  -0.000198  -0.000000  -0.000000
    27  H   -0.000195  -0.005373   0.604157  -0.005515   0.000003  -0.000012
    28  H    0.000020  -0.000198  -0.005515   0.617707   0.000133   0.006329
    29  H   -0.000005  -0.000000   0.000003   0.000133   0.601384  -0.035495
    30  H    0.000003  -0.000000  -0.000012   0.006329  -0.035495   0.594407
    31  H    0.000000  -0.000000   0.000000   0.000255   0.005386  -0.009408
    32  H   -0.000000   0.000000  -0.000000  -0.000027  -0.008573   0.001811
              31         32
     1  C   -0.034601  -0.027696
     2  C   -0.006087  -0.000018
     3  C    0.000335  -0.000256
     4  C    0.000007   0.000042
     5  C   -0.000191  -0.000118
     6  C    0.004171  -0.003990
     7  C    0.000176   0.000547
     8  C   -0.000006  -0.000345
     9  C   -0.000257   0.000392
    10  C    0.000007   0.000005
    11  C   -0.000002  -0.000000
    12  C   -0.000028   0.000003
    13  C    0.002169  -0.000130
    14  C   -0.003315   0.004396
    15  C   -0.031244  -0.035752
    16  C    0.362309   0.350177
    17  H    0.008914   0.000359
    18  H   -0.000017   0.000003
    19  H   -0.000000  -0.000000
    20  H    0.000003   0.000001
    21  H   -0.000017   0.002069
    22  H    0.000000   0.000021
    23  H   -0.000001   0.000043
    24  H    0.000001  -0.000001
    25  H    0.000000  -0.000000
    26  H   -0.000000   0.000000
    27  H    0.000000  -0.000000
    28  H    0.000255  -0.000027
    29  H    0.005386  -0.008573
    30  H   -0.009408   0.001811
    31  H    0.593330  -0.035445
    32  H   -0.035445   0.603286
 Mulliken charges:
               1
     1  C    0.142431
     2  C   -0.188878
     3  C   -0.123821
     4  C   -0.126801
     5  C   -0.184648
     6  C    0.130529
     7  C   -0.362583
     8  C   -0.346227
     9  C    0.142431
    10  C   -0.188878
    11  C   -0.123821
    12  C   -0.126801
    13  C   -0.184648
    14  C    0.130529
    15  C   -0.362583
    16  C   -0.346227
    17  H    0.117520
    18  H    0.123186
    19  H    0.123111
    20  H    0.116229
    21  H    0.143233
    22  H    0.143970
    23  H    0.149194
    24  H    0.143555
    25  H    0.117520
    26  H    0.123186
    27  H    0.123111
    28  H    0.116229
    29  H    0.143233
    30  H    0.143970
    31  H    0.143555
    32  H    0.149194
 Sum of Mulliken charges =  -0.00000
 Mulliken charges with hydrogens summed into heavy atoms:
               1
     1  C    0.142431
     2  C   -0.071359
     3  C   -0.000635
     4  C   -0.003689
     5  C   -0.068419
     6  C    0.130529
     7  C   -0.075380
     8  C   -0.053478
     9  C    0.142431
    10  C   -0.071359
    11  C   -0.000635
    12  C   -0.003689
    13  C   -0.068419
    14  C    0.130529
    15  C   -0.075380
    16  C   -0.053478
 Electronic spatial extent (au):  <R**2>=           3190.1670
 Charge=             -0.0000 electrons
 Dipole moment (field-independent basis, Debye):
    X=              0.0000    Y=              0.0000    Z=              0.5403  Tot=              0.5403
 Quadrupole moment (field-independent basis, Debye-Ang):
   XX=            -96.3721   YY=            -86.4706   ZZ=            -90.5120
   XY=             -1.6353   XZ=              0.0000   YZ=             -0.0000
 Traceless Quadrupole moment (field-independent basis, Debye-Ang):
   XX=             -5.2538   YY=              4.6476   ZZ=              0.6062
   XY=             -1.6353   XZ=              0.0000   YZ=             -0.0000
 Octapole moment (field-independent basis, Debye-Ang**2):
  XXX=             -0.0000  YYY=             -0.0000  ZZZ=              1.6866  XYY=             -0.0000
  XXY=             -0.0001  XXZ=            -23.8829  XZZ=              0.0000  YZZ=              0.0000
  YYZ=             -2.3023  XYZ=             -1.9427
 Hexadecapole moment (field-independent basis, Debye-Ang**3):
 XXXX=          -2569.7527 YYYY=           -951.0286 ZZZZ=           -922.0770 XXXY=            -30.9839
 XXXZ=              0.0005 YYYX=            -11.3024 YYYZ=              0.0000 ZZZX=              0.0002
 ZZZY=              0.0000 XXYY=           -551.7811 XXZZ=           -514.5209 YYZZ=           -314.2577
 XXYZ=              0.0001 YYXZ=              0.0002 ZZXY=              6.6954
 N-N= 1.045473798569D+03 E-N=-3.526453349401D+03  KE= 6.152892997681D+02
 Unable to Open any file for archive entry.
 1\1\GINC-HPCS02\FOpt\RB3LYP\Gen\C16H16\Z036650\06-Jan-2026\0\\# opt=ma
 xstep=5 b3lyp/gen int=grid=ultrafine scf=(xqc,maxcycle=200,noincore)\\
 m2g_dcbod_twistboat\\0,1\C,-1.4242081542,-0.8350997213,0.3372852452\C,
 -2.0981337364,-1.434494941,-0.7358700463\C,-2.9046875151,-0.6970574546
 ,-1.6025822355\C,-3.0489633751,0.6753387953,-1.406008188\C,-2.38067568
 7,1.2868125425,-0.3457960041\C,-1.5678352908,0.5555977589,0.5294172411
 \C,-0.8357114047,1.2737485428,1.640779511\C,0.6102975999,1.7254902444,
 1.2664682223\C,1.4242076947,0.8350978284,0.3372910147\C,2.0981342263,1
 .4344991614,-0.7358602807\C,2.9046887733,0.6970666269,-1.6025759593\C,
 3.0489644581,-0.6753307457,-1.4060096172\C,2.3806758542,-1.2868105191,
 -0.3458014924\C,1.5678346932,-0.5556007347,0.529415237\C,0.8357100133,
 -1.2737578865,1.6407728568\C,-0.6102988582,-1.7254973436,1.2664581664\
 H,-1.9884578756,-2.505478431,-0.8926073242\H,-3.4145427078,-1.19319292
 7,-2.4242535883\H,-3.6753187429,1.2657806853,-2.0695404748\H,-2.491059
 0615,2.3578353909,-0.1870358482\H,-0.8135132378,0.6461586339,2.5367282
 743\H,-1.3962781095,2.1728646898,1.9234487925\H,1.1655445832,1.8854839
 885,2.2030384306\H,0.5424518031,2.710960476,0.7919277056\H,1.988458478
 3,2.5054835363,-0.8925915693\H,3.4145446664,1.193206806,-2.4242440336\
 H,3.6753203945,-1.2657688466,-2.0695447375\H,2.4910591019,-2.357834271
 7,-0.1870473526\H,0.8135113444,-0.6461731675,2.5367252592\H,1.39627648
 76,-2.1728757017,1.9234372868\H,-0.5424529459,-2.7109650169,0.79191236
 11\H,-1.1655464698,-1.8854959982,2.2030271475\\Version=ES64L-G16RevC.0
 2\State=1-A\HF=-619.3350825\RMSD=3.747e-09\RMSF=4.610e-06\Dipole=0.,-0
 .0000006,0.2125664\Quadrupole=-3.9068852,3.4561967,0.4506885,-1.213374
 5,-0.0000053,0.000008\PG=C01 [X(C16H16)]\\@
 The archive entry for this job was punched.


 HERE WE GO......
 SLIDING DOWN THE RAZOR BLADE OF LIFE......
                                 TOM LEHRER
 Job cpu time:       0 days  0 hours 15 minutes 14.8 seconds.
 Elapsed time:       0 days  0 hours  0 minutes 32.8 seconds.
 File lengths (MBytes):  RWF=     42 Int=      0 D2E=      0 Chk=      7 Scr=      1
 Normal termination of Gaussian 16 at Tue Jan  6 13:38:01 2026.
