 Entering Gaussian System, Link 0=g16
 Input=dcbod_twistboat.com
 Output=dcbod_twistboat.log
 Initial command:
 /usr/local/gaussian16c02/g16/l1.exe "/scr/Gau-835912.inp" -scrdir="/scr/"
 Entering Link 1 = /usr/local/gaussian16c02/g16/l1.exe PID=    835913.
  
 Copyright (c) 1988-2021, Gaussian, Inc.  All Rights Reserved.
  
 This is part of the Gaussian(R) 16 program.  It is based on
 the Gaussian(R) 09 system (copyright 2009, Gaussian, Inc.),
 the Gaussian(R) 03 system (copyright 2003, Gaussian, Inc.),
 the Gaussian(R) 98 system (copyright 1998, Gaussian, Inc.),
 the Gaussian(R) 94 system (copyright 1995, Gaussian, Inc.),
 the Gaussian 92(TM) system (copyright 1992, Gaussian, Inc.),
 the Gaussian 90(TM) system (copyright 1990, Gaussian, Inc.),
 the Gaussian 88(TM) system (copyright 1988, Gaussian, Inc.),
 the Gaussian 86(TM) system (copyright 1986, Carnegie Mellon
 University), and the Gaussian 82(TM) system (copyright 1983,
 Carnegie Mellon University). Gaussian is a federally registered
 trademark of Gaussian, Inc.
  
 This software contains proprietary and confidential information,
 including trade secrets, belonging to Gaussian, Inc.
  
 This software is provided under written license and may be
 used, copied, transmitted, or stored only in accord with that
 written license.
  
 The following legend is applicable only to US Government
 contracts under FAR:
  
                    RESTRICTED RIGHTS LEGEND
  
 Use, reproduction and disclosure by the US Government is
 subject to restrictions as set forth in subparagraphs (a)
 and (c) of the Commercial Computer Software - Restricted
 Rights clause in FAR 52.227-19.
  
 Gaussian, Inc.
 340 Quinnipiac St., Bldg. 40, Wallingford CT 06492
  
  
 ---------------------------------------------------------------
 Warning -- This program may not be used in any manner that
 competes with the business of Gaussian, Inc. or will provide
 assistance to any competitor of Gaussian, Inc.  The licensee
 of this program is prohibited from giving any competitor of
 Gaussian, Inc. access to this program.  By using this program,
 the user acknowledges that Gaussian, Inc. is engaged in the
 business of creating and licensing software in the field of
 computational chemistry and represents and warrants to the
 licensee that it is not a competitor of Gaussian, Inc. and that
 it will not use this program in any manner prohibited above.
 ---------------------------------------------------------------
  

 Cite this work as:
 Gaussian 16, Revision C.02,
 M. J. Frisch, G. W. Trucks, H. B. Schlegel, G. E. Scuseria, 
 M. A. Robb, J. R. Cheeseman, G. Scalmani, V. Barone, 
 G. A. Petersson, H. Nakatsuji, X. Li, M. Caricato, A. V. Marenich, 
 J. Bloino, B. G. Janesko, R. Gomperts, B. Mennucci, H. P. Hratchian, 
 J. V. Ortiz, A. F. Izmaylov, J. L. Sonnenberg, D. Williams-Young, 
 F. Ding, F. Lipparini, F. Egidi, J. Goings, B. Peng, A. Petrone, 
 T. Henderson, D. Ranasinghe, V. G. Zakrzewski, J. Gao, N. Rega, 
 G. Zheng, W. Liang, M. Hada, M. Ehara, K. Toyota, R. Fukuda, 
 J. Hasegawa, M. Ishida, T. Nakajima, Y. Honda, O. Kitao, H. Nakai, 
 T. Vreven, K. Throssell, J. A. Montgomery, Jr., J. E. Peralta, 
 F. Ogliaro, M. J. Bearpark, J. J. Heyd, E. N. Brothers, K. N. Kudin, 
 V. N. Staroverov, T. A. Keith, R. Kobayashi, J. Normand, 
 K. Raghavachari, A. P. Rendell, J. C. Burant, S. S. Iyengar, 
 J. Tomasi, M. Cossi, J. M. Millam, M. Klene, C. Adamo, R. Cammi, 
 J. W. Ochterski, R. L. Martin, K. Morokuma, O. Farkas, 
 J. B. Foresman, and D. J. Fox, Gaussian, Inc., Wallingford CT, 2019.
 
 ******************************************
 Gaussian 16:  ES64L-G16RevC.02  7-Dec-2021
                 9-Dec-2025 
 ******************************************
 %chk=dcbod_twistboat
 %mem=4GB
 %nproc=32
 Will use up to   32 processors via shared memory.
 ----------------------------------------------------------------------
 # opt=(maxstep=5) B3LYP/6-31G** SCF=(XQC,MaxCycle=200,noincore) Int=(G
 rid=UltraFine)
 ----------------------------------------------------------------------
 1/8=5,18=20,19=15,26=4,38=1/1,3;
 2/9=110,12=2,17=6,18=5,40=1/2;
 3/5=1,6=6,7=101,11=2,25=1,30=1,71=1,74=-5,75=-5/1,2,3;
 4//1;
 5/5=4,7=200,8=3,13=1,38=5/2,8;
 6/7=2,8=2,9=2,10=2,28=1/1;
 7//1,2,3,16;
 1/8=5,18=20,19=15,26=4/3(2);
 2/9=110/2;
 99//99;
 2/9=110/2;
 3/5=1,6=6,7=101,11=2,25=1,30=1,71=1,74=-5,75=-5/1,2,3;
 4/5=5,16=3,69=1/1;
 5/5=4,7=200,8=3,13=1,38=5/2,8;
 7//1,2,3,16;
 1/8=5,18=20,19=15,26=4/3(-5);
 2/9=110/2;
 6/7=2,8=2,9=2,10=2,19=2,28=1/1;
 99/9=1/99;
 -------------------
 m2g_dcbod_twistboat
 -------------------
 Symbolic Z-matrix:
 Charge =  0 Multiplicity = 1
 C                    -1.303     0.9738   -0.0843 
 C                    -1.7753    1.4594    1.1497 
 C                    -2.4665    0.6243    2.0289 
 C                    -2.6974   -0.708     1.6927 
 C                    -2.2427   -1.21      0.4733 
 C                    -1.5597   -0.38     -0.4324 
 C                    -1.0264   -0.9868   -1.7085 
 C                     0.4091   -1.5471   -1.567 
 C                     1.2719   -0.8877   -0.4976 
 C                     1.8628   -1.7017    0.4872 
 C                     2.6549   -1.1456    1.4929 
 C                     2.87      0.2305    1.5337 
 C                     2.2983    1.0562    0.5658 
 C                     1.5117    0.5128   -0.4645 
 C                     0.8576    1.454    -1.4481 
 C                    -0.5465    1.9272   -1.0016 
 H                    -1.6039    2.4887    1.4394 
 H                    -2.8198    1.0109    2.9762 
 H                    -3.2256   -1.3553    2.3808 
 H                    -2.4179   -2.2524    0.2366 
 H                    -1.0777   -0.2488   -2.5345 
 H                    -1.6979   -1.8102   -2.0383 
 H                     0.9294   -1.4642   -2.5451 
 H                     0.3233   -2.6367   -1.3604 
 H                     1.7067   -2.7733    0.4834 
 H                     3.0991   -1.7838    2.2459 
 H                     3.4771    0.6595    2.3204 
 H                     2.4639    2.1251    0.6233 
 H                     0.8109    0.987    -2.4526 
 H                     1.5036    2.3478   -1.5941 
 H                    -0.4228    2.9119   -0.4992 
 H                    -1.1673    2.1224   -1.9021 
 

 GradGradGradGradGradGradGradGradGradGradGradGradGradGradGradGradGradGrad
 Berny optimization.
 Initialization pass.
                           ----------------------------
                           !    Initial Parameters    !
                           ! (Angstroms and Degrees)  !
 --------------------------                            --------------------------
 ! Name  Definition              Value          Derivative Info.                !
 --------------------------------------------------------------------------------
 ! R1    R(1,2)                  1.4077         estimate D2E/DX2                !
 ! R2    R(1,6)                  1.4212         estimate D2E/DX2                !
 ! R3    R(1,16)                 1.524          estimate D2E/DX2                !
 ! R4    R(2,3)                  1.3958         estimate D2E/DX2                !
 ! R5    R(2,17)                 1.0829         estimate D2E/DX2                !
 ! R6    R(3,4)                  1.3933         estimate D2E/DX2                !
 ! R7    R(3,18)                 1.0824         estimate D2E/DX2                !
 ! R8    R(4,5)                  1.3949         estimate D2E/DX2                !
 ! R9    R(4,19)                 1.0823         estimate D2E/DX2                !
 ! R10   R(5,6)                  1.4056         estimate D2E/DX2                !
 ! R11   R(5,20)                 1.0832         estimate D2E/DX2                !
 ! R12   R(6,7)                  1.5103         estimate D2E/DX2                !
 ! R13   R(7,8)                  1.5475         estimate D2E/DX2                !
 ! R14   R(7,21)                 1.1089         estimate D2E/DX2                !
 ! R15   R(7,22)                 1.1125         estimate D2E/DX2                !
 ! R16   R(8,9)                  1.5241         estimate D2E/DX2                !
 ! R17   R(8,23)                 1.111          estimate D2E/DX2                !
 ! R18   R(8,24)                 1.1123         estimate D2E/DX2                !
 ! R19   R(9,10)                 1.4077         estimate D2E/DX2                !
 ! R20   R(9,14)                 1.4213         estimate D2E/DX2                !
 ! R21   R(10,11)                1.3957         estimate D2E/DX2                !
 ! R22   R(10,25)                1.0829         estimate D2E/DX2                !
 ! R23   R(11,12)                1.3934         estimate D2E/DX2                !
 ! R24   R(11,26)                1.0824         estimate D2E/DX2                !
 ! R25   R(12,13)                1.3948         estimate D2E/DX2                !
 ! R26   R(12,27)                1.0824         estimate D2E/DX2                !
 ! R27   R(13,14)                1.4055         estimate D2E/DX2                !
 ! R28   R(13,28)                1.0832         estimate D2E/DX2                !
 ! R29   R(14,15)                1.5104         estimate D2E/DX2                !
 ! R30   R(15,16)                1.5475         estimate D2E/DX2                !
 ! R31   R(15,29)                1.1087         estimate D2E/DX2                !
 ! R32   R(15,30)                1.1124         estimate D2E/DX2                !
 ! R33   R(16,31)                1.1124         estimate D2E/DX2                !
 ! R34   R(16,32)                1.111          estimate D2E/DX2                !
 ! A1    A(2,1,6)              118.8622         estimate D2E/DX2                !
 ! A2    A(2,1,16)             118.5783         estimate D2E/DX2                !
 ! A3    A(6,1,16)             122.5568         estimate D2E/DX2                !
 ! A4    A(1,2,3)              120.793          estimate D2E/DX2                !
 ! A5    A(1,2,17)             120.6154         estimate D2E/DX2                !
 ! A6    A(3,2,17)             118.5906         estimate D2E/DX2                !
 ! A7    A(2,3,4)              120.1443         estimate D2E/DX2                !
 ! A8    A(2,3,18)             119.9479         estimate D2E/DX2                !
 ! A9    A(4,3,18)             119.9071         estimate D2E/DX2                !
 ! A10   A(3,4,5)              120.0689         estimate D2E/DX2                !
 ! A11   A(3,4,19)             119.9556         estimate D2E/DX2                !
 ! A12   A(5,4,19)             119.9748         estimate D2E/DX2                !
 ! A13   A(4,5,6)              120.6091         estimate D2E/DX2                !
 ! A14   A(4,5,20)             118.9887         estimate D2E/DX2                !
 ! A15   A(6,5,20)             120.4009         estimate D2E/DX2                !
 ! A16   A(1,6,5)              119.5007         estimate D2E/DX2                !
 ! A17   A(1,6,7)              121.7278         estimate D2E/DX2                !
 ! A18   A(5,6,7)              118.6049         estimate D2E/DX2                !
 ! A19   A(6,7,8)              113.3141         estimate D2E/DX2                !
 ! A20   A(6,7,21)             110.2221         estimate D2E/DX2                !
 ! A21   A(6,7,22)             109.5547         estimate D2E/DX2                !
 ! A22   A(8,7,21)             110.6106         estimate D2E/DX2                !
 ! A23   A(8,7,22)             108.6052         estimate D2E/DX2                !
 ! A24   A(21,7,22)            104.1135         estimate D2E/DX2                !
 ! A25   A(7,8,9)              115.6364         estimate D2E/DX2                !
 ! A26   A(7,8,23)             109.0821         estimate D2E/DX2                !
 ! A27   A(7,8,24)             107.4641         estimate D2E/DX2                !
 ! A28   A(9,8,23)             108.6833         estimate D2E/DX2                !
 ! A29   A(9,8,24)             109.7036         estimate D2E/DX2                !
 ! A30   A(23,8,24)            105.8275         estimate D2E/DX2                !
 ! A31   A(8,9,10)             118.5761         estimate D2E/DX2                !
 ! A32   A(8,9,14)             122.5603         estimate D2E/DX2                !
 ! A33   A(10,9,14)            118.861          estimate D2E/DX2                !
 ! A34   A(9,10,11)            120.7915         estimate D2E/DX2                !
 ! A35   A(9,10,25)            120.6137         estimate D2E/DX2                !
 ! A36   A(11,10,25)           118.5937         estimate D2E/DX2                !
 ! A37   A(10,11,12)           120.1444         estimate D2E/DX2                !
 ! A38   A(10,11,26)           119.9498         estimate D2E/DX2                !
 ! A39   A(12,11,26)           119.9051         estimate D2E/DX2                !
 ! A40   A(11,12,13)           120.0689         estimate D2E/DX2                !
 ! A41   A(11,12,27)           119.9538         estimate D2E/DX2                !
 ! A42   A(13,12,27)           119.9765         estimate D2E/DX2                !
 ! A43   A(12,13,14)           120.6101         estimate D2E/DX2                !
 ! A44   A(12,13,28)           118.9916         estimate D2E/DX2                !
 ! A45   A(14,13,28)           120.397          estimate D2E/DX2                !
 ! A46   A(9,14,13)            119.5024         estimate D2E/DX2                !
 ! A47   A(9,14,15)            121.7236         estimate D2E/DX2                !
 ! A48   A(13,14,15)           118.6084         estimate D2E/DX2                !
 ! A49   A(14,15,16)           113.3031         estimate D2E/DX2                !
 ! A50   A(14,15,29)           110.2293         estimate D2E/DX2                !
 ! A51   A(14,15,30)           109.5524         estimate D2E/DX2                !
 ! A52   A(16,15,29)           110.6086         estimate D2E/DX2                !
 ! A53   A(16,15,30)           108.6071         estimate D2E/DX2                !
 ! A54   A(29,15,30)           104.1212         estimate D2E/DX2                !
 ! A55   A(1,16,15)            115.6423         estimate D2E/DX2                !
 ! A56   A(1,16,31)            109.7025         estimate D2E/DX2                !
 ! A57   A(1,16,32)            108.6863         estimate D2E/DX2                !
 ! A58   A(15,16,31)           107.4639         estimate D2E/DX2                !
 ! A59   A(15,16,32)           109.0776         estimate D2E/DX2                !
 ! A60   A(31,16,32)           105.8235         estimate D2E/DX2                !
 ! D1    D(6,1,2,3)              0.9741         estimate D2E/DX2                !
 ! D2    D(6,1,2,17)          -179.4189         estimate D2E/DX2                !
 ! D3    D(16,1,2,3)          -179.6049         estimate D2E/DX2                !
 ! D4    D(16,1,2,17)            0.0022         estimate D2E/DX2                !
 ! D5    D(2,1,6,5)             -1.7596         estimate D2E/DX2                !
 ! D6    D(2,1,6,7)           -177.0013         estimate D2E/DX2                !
 ! D7    D(16,1,6,5)           178.8436         estimate D2E/DX2                !
 ! D8    D(16,1,6,7)             3.6019         estimate D2E/DX2                !
 ! D9    D(2,1,16,15)          125.1529         estimate D2E/DX2                !
 ! D10   D(2,1,16,31)            3.4518         estimate D2E/DX2                !
 ! D11   D(2,1,16,32)         -111.8168         estimate D2E/DX2                !
 ! D12   D(6,1,16,15)          -55.4486         estimate D2E/DX2                !
 ! D13   D(6,1,16,31)         -177.1497         estimate D2E/DX2                !
 ! D14   D(6,1,16,32)           67.5816         estimate D2E/DX2                !
 ! D15   D(1,2,3,4)              0.0329         estimate D2E/DX2                !
 ! D16   D(1,2,3,18)           179.73           estimate D2E/DX2                !
 ! D17   D(17,2,3,4)          -179.582          estimate D2E/DX2                !
 ! D18   D(17,2,3,18)            0.1152         estimate D2E/DX2                !
 ! D19   D(2,3,4,5)             -0.2527         estimate D2E/DX2                !
 ! D20   D(2,3,4,19)           179.4261         estimate D2E/DX2                !
 ! D21   D(18,3,4,5)          -179.95           estimate D2E/DX2                !
 ! D22   D(18,3,4,19)           -0.2712         estimate D2E/DX2                !
 ! D23   D(3,4,5,6)             -0.5602         estimate D2E/DX2                !
 ! D24   D(3,4,5,20)           179.0307         estimate D2E/DX2                !
 ! D25   D(19,4,5,6)           179.7611         estimate D2E/DX2                !
 ! D26   D(19,4,5,20)           -0.648          estimate D2E/DX2                !
 ! D27   D(4,5,6,1)              1.5718         estimate D2E/DX2                !
 ! D28   D(4,5,6,7)            176.9623         estimate D2E/DX2                !
 ! D29   D(20,5,6,1)          -178.0133         estimate D2E/DX2                !
 ! D30   D(20,5,6,7)            -2.6228         estimate D2E/DX2                !
 ! D31   D(1,6,7,8)             86.0964         estimate D2E/DX2                !
 ! D32   D(1,6,7,21)           -38.4618         estimate D2E/DX2                !
 ! D33   D(1,6,7,22)          -152.4538         estimate D2E/DX2                !
 ! D34   D(5,6,7,8)            -89.1865         estimate D2E/DX2                !
 ! D35   D(5,6,7,21)           146.2553         estimate D2E/DX2                !
 ! D36   D(5,6,7,22)            32.2633         estimate D2E/DX2                !
 ! D37   D(6,7,8,9)            -26.9521         estimate D2E/DX2                !
 ! D38   D(6,7,8,23)          -149.7711         estimate D2E/DX2                !
 ! D39   D(6,7,8,24)            95.9374         estimate D2E/DX2                !
 ! D40   D(21,7,8,9)            97.3953         estimate D2E/DX2                !
 ! D41   D(21,7,8,23)          -25.4236         estimate D2E/DX2                !
 ! D42   D(21,7,8,24)         -139.7152         estimate D2E/DX2                !
 ! D43   D(22,7,8,9)          -148.9334         estimate D2E/DX2                !
 ! D44   D(22,7,8,23)           88.2477         estimate D2E/DX2                !
 ! D45   D(22,7,8,24)          -26.0438         estimate D2E/DX2                !
 ! D46   D(7,8,9,10)           125.1476         estimate D2E/DX2                !
 ! D47   D(7,8,9,14)           -55.4446         estimate D2E/DX2                !
 ! D48   D(23,8,9,10)         -111.8228         estimate D2E/DX2                !
 ! D49   D(23,8,9,14)           67.5851         estimate D2E/DX2                !
 ! D50   D(24,8,9,10)            3.4495         estimate D2E/DX2                !
 ! D51   D(24,8,9,14)         -177.1427         estimate D2E/DX2                !
 ! D52   D(8,9,10,11)         -179.6094         estimate D2E/DX2                !
 ! D53   D(8,9,10,25)            0.0087         estimate D2E/DX2                !
 ! D54   D(14,9,10,11)           0.9605         estimate D2E/DX2                !
 ! D55   D(14,9,10,25)        -179.4214         estimate D2E/DX2                !
 ! D56   D(8,9,14,13)          178.8464         estimate D2E/DX2                !
 ! D57   D(8,9,14,15)            3.5896         estimate D2E/DX2                !
 ! D58   D(10,9,14,13)          -1.7473         estimate D2E/DX2                !
 ! D59   D(10,9,14,15)        -177.0042         estimate D2E/DX2                !
 ! D60   D(9,10,11,12)           0.0421         estimate D2E/DX2                !
 ! D61   D(9,10,11,26)         179.7296         estimate D2E/DX2                !
 ! D62   D(25,10,11,12)       -179.5836         estimate D2E/DX2                !
 ! D63   D(25,10,11,26)          0.1039         estimate D2E/DX2                !
 ! D64   D(10,11,12,13)         -0.2562         estimate D2E/DX2                !
 ! D65   D(10,11,12,27)        179.4213         estimate D2E/DX2                !
 ! D66   D(26,11,12,13)       -179.9439         estimate D2E/DX2                !
 ! D67   D(26,11,12,27)         -0.2664         estimate D2E/DX2                !
 ! D68   D(11,12,13,14)         -0.5578         estimate D2E/DX2                !
 ! D69   D(11,12,13,28)        179.0324         estimate D2E/DX2                !
 ! D70   D(27,12,13,14)        179.7647         estimate D2E/DX2                !
 ! D71   D(27,12,13,28)         -0.645          estimate D2E/DX2                !
 ! D72   D(12,13,14,9)           1.565          estimate D2E/DX2                !
 ! D73   D(12,13,14,15)        176.9697         estimate D2E/DX2                !
 ! D74   D(28,13,14,9)        -178.0195         estimate D2E/DX2                !
 ! D75   D(28,13,14,15)         -2.6147         estimate D2E/DX2                !
 ! D76   D(9,14,15,16)          86.105          estimate D2E/DX2                !
 ! D77   D(9,14,15,29)         -38.4481         estimate D2E/DX2                !
 ! D78   D(9,14,15,30)        -152.4519         estimate D2E/DX2                !
 ! D79   D(13,14,15,16)        -89.1929         estimate D2E/DX2                !
 ! D80   D(13,14,15,29)        146.2541         estimate D2E/DX2                !
 ! D81   D(13,14,15,30)         32.2502         estimate D2E/DX2                !
 ! D82   D(14,15,16,1)         -26.9539         estimate D2E/DX2                !
 ! D83   D(14,15,16,31)         95.938          estimate D2E/DX2                !
 ! D84   D(14,15,16,32)       -149.7775         estimate D2E/DX2                !
 ! D85   D(29,15,16,1)          97.3932         estimate D2E/DX2                !
 ! D86   D(29,15,16,31)       -139.7148         estimate D2E/DX2                !
 ! D87   D(29,15,16,32)        -25.4303         estimate D2E/DX2                !
 ! D88   D(30,15,16,1)        -148.9263         estimate D2E/DX2                !
 ! D89   D(30,15,16,31)        -26.0343         estimate D2E/DX2                !
 ! D90   D(30,15,16,32)         88.2502         estimate D2E/DX2                !
 --------------------------------------------------------------------------------
 Trust Radius=5.00D-02 FncErr=1.00D-07 GrdErr=1.00D-06 EigMax=2.50D+02 EigMin=1.00D-04
 Number of steps in this run=    192 maximum allowed number of steps=    192.
 GradGradGradGradGradGradGradGradGradGradGradGradGradGradGradGradGradGrad

                          Input orientation:                          
 ---------------------------------------------------------------------
 Center     Atomic      Atomic             Coordinates (Angstroms)
 Number     Number       Type             X           Y           Z
 ---------------------------------------------------------------------
      1          6           0       -1.303000    0.973800   -0.084300
      2          6           0       -1.775300    1.459400    1.149700
      3          6           0       -2.466500    0.624300    2.028900
      4          6           0       -2.697400   -0.708000    1.692700
      5          6           0       -2.242700   -1.210000    0.473300
      6          6           0       -1.559700   -0.380000   -0.432400
      7          6           0       -1.026400   -0.986800   -1.708500
      8          6           0        0.409100   -1.547100   -1.567000
      9          6           0        1.271900   -0.887700   -0.497600
     10          6           0        1.862800   -1.701700    0.487200
     11          6           0        2.654900   -1.145600    1.492900
     12          6           0        2.870000    0.230500    1.533700
     13          6           0        2.298300    1.056200    0.565800
     14          6           0        1.511700    0.512800   -0.464500
     15          6           0        0.857600    1.454000   -1.448100
     16          6           0       -0.546500    1.927200   -1.001600
     17          1           0       -1.603900    2.488700    1.439400
     18          1           0       -2.819800    1.010900    2.976200
     19          1           0       -3.225600   -1.355300    2.380800
     20          1           0       -2.417900   -2.252400    0.236600
     21          1           0       -1.077700   -0.248800   -2.534500
     22          1           0       -1.697900   -1.810200   -2.038300
     23          1           0        0.929400   -1.464200   -2.545100
     24          1           0        0.323300   -2.636700   -1.360400
     25          1           0        1.706700   -2.773300    0.483400
     26          1           0        3.099100   -1.783800    2.245900
     27          1           0        3.477100    0.659500    2.320400
     28          1           0        2.463900    2.125100    0.623300
     29          1           0        0.810900    0.987000   -2.452600
     30          1           0        1.503600    2.347800   -1.594100
     31          1           0       -0.422800    2.911900   -0.499200
     32          1           0       -1.167300    2.122400   -1.902100
 ---------------------------------------------------------------------
                    Distance matrix (angstroms):
                    1          2          3          4          5
     1  C    0.000000
     2  C    1.407704   0.000000
     3  C    2.437519   1.395759   0.000000
     4  C    2.816120   2.417176   1.393330   0.000000
     5  C    2.441912   2.793148   2.415499   1.394881   0.000000
     6  C    1.421212   2.435758   2.808719   2.432693   1.405589
     7  C    2.560954   3.835890   4.317139   3.799754   2.507879
     8  C    3.388897   4.603380   5.090634   4.580401   3.362812
     9  C    3.204077   4.184245   4.758674   4.537075   3.660456
    10  C    4.184161   4.864898   5.150724   4.820383   4.134863
    11  C    4.758612   5.150775   5.445051   5.373875   5.003021
    12  C    4.536998   4.820421   5.373875   5.648186   5.416566
    13  C    3.660435   4.134940   5.003051   5.416579   5.075914
    14  C    2.877431   3.782336   4.696334   4.884710   4.235921
    15  C    2.599757   3.698751   4.881349   5.213146   4.516695
    16  C    1.524042   2.521285   3.816789   4.339344   3.859333
    17  H    2.169591   1.082942   2.137189   3.388037   3.875796
    18  H    3.415951   2.151333   1.082431   2.148714   3.395578
    19  H    3.898438   3.397280   2.149159   1.082347   2.150758
    20  H    3.428461   3.876099   3.389706   2.140915   1.083199
    21  H    2.747543   4.120427   4.849298   4.550111   3.365708
    22  H    3.424138   4.567233   4.802047   4.016741   2.639163
    23  H    4.121042   5.432714   6.067573   5.628896   4.386066
    24  H    4.160408   5.242400   5.468497   4.708071   3.461544
    25  H    4.839559   5.521234   5.598915   5.012381   4.247560
    26  H    5.693213   5.956490   6.068108   5.921384   5.657401
    27  H    5.360105   5.440412   5.950848   6.355196   6.294674
    28  H    4.001965   4.323317   5.341999   5.984070   5.770396
    29  H    3.174522   4.459614   5.563879   5.688999   4.765729
    30  H    3.470501   4.366793   5.644314   6.147306   5.564786
    31  H    2.168669   2.580288   3.975061   4.804363   4.609539
    32  H    2.154552   3.181622   4.402838   4.824413   4.231300
                    6          7          8          9         10
     6  C    0.000000
     7  C    1.510313   0.000000
     8  C    2.554528   1.547456   0.000000
     9  C    2.877494   2.599670   1.524089   0.000000
    10  C    3.782335   3.698602   2.521286   1.407690   0.000000
    11  C    4.696358   4.881204   3.816780   2.437476   1.395744
    12  C    4.884721   5.213023   4.339381   2.816110   2.417232
    13  C    4.235946   4.516627   3.859415   2.441939   2.793179
    14  C    3.198690   3.199732   2.583490   1.421267   2.435778
    15  C    3.199772   3.094312   3.036757   2.560987   3.835917
    16  C    2.583357   3.036677   3.647411   3.388843   4.603278
    17  H    3.425643   4.724604   5.420174   4.839656   5.521245
    18  H    3.891145   5.399398   6.132685   5.693327   5.956514
    19  H    3.411822   4.657751   5.369633   5.360163   5.440361
    20  H    2.165629   2.705814   3.426711   4.002009   4.323247
    21  H    2.160639   1.108852   2.198230   3.174551   4.459611
    22  H    2.154875   1.112505   2.175039   3.470515   4.366750
    23  H    3.440147   2.180129   1.110974   2.154510   3.181585
    24  H    3.082137   2.159869   1.112328   2.168702   2.580293
    25  H    4.151619   3.932664   2.718726   2.169539   1.082917
    26  H    5.554130   5.769943   4.672294   3.415911   2.151326
    27  H    5.833337   6.262895   5.421585   3.898443   3.397330
    28  H    4.855861   5.225266   4.743909   3.428446   3.876112
    29  H    3.401418   2.797363   2.714294   2.747553   4.120440
    30  H    4.263126   4.187308   4.045851   3.424100   4.567197
    31  H    3.483333   4.126330   4.659929   4.160405   5.242352
    32  H    2.928481   3.118406   4.007812   4.121046   5.432679
                   11         12         13         14         15
    11  C    0.000000
    12  C    1.393407   0.000000
    13  C    2.415492   1.394795   0.000000
    14  C    2.808667   2.432586   1.405539   0.000000
    15  C    4.317139   3.799715   2.507918   1.510355   0.000000
    16  C    5.090539   4.580285   3.362777   2.554445   1.547507
    17  H    5.598962   5.012399   4.247634   4.151624   3.932842
    18  H    6.068197   5.921457   5.657475   5.554135   5.770099
    19  H    5.950850   6.355209   6.294683   5.833313   6.263000
    20  H    5.341966   5.984074   5.770420   4.855886   5.225372
    21  H    5.563857   5.688964   4.765738   3.401460   2.797352
    22  H    5.644283   6.147304   5.564818   4.263180   4.187352
    23  H    4.402761   4.824370   4.231312   2.928566   3.118406
    24  H    3.975055   4.804408   4.609597   3.483430   4.126378
    25  H    2.137190   3.388098   3.875803   3.425638   4.724588
    26  H    1.082415   2.148749   3.395529   3.891077   5.399380
    27  H    2.149222   1.082362   2.150712   3.411742   4.657747
    28  H    3.389714   2.140854   1.083179   2.165526   2.705785
    29  H    4.849257   4.550030   3.365692   2.160678   1.108734
    30  H    4.801969   4.016608   2.639119   2.154829   1.112434
    31  H    5.468456   4.707985   3.461536   3.082073   2.159932
    32  H    6.067542   5.628836   4.386080   3.440138   2.180159
                   16         17         18         19         20
    16  C    0.000000
    17  H    2.718797   0.000000
    18  H    4.672300   2.454396   0.000000
    19  H    5.421532   4.276971   2.473475   0.000000
    20  H    4.743873   4.958564   4.279726   2.460642   0.000000
    21  H    2.714209   4.854140   5.915198   5.477042   3.672811
    22  H    4.045816   5.530260   5.861951   4.697792   2.426749
    23  H    4.007776   6.157862   7.118102   6.445182   4.423068
    24  H    4.659879   6.150017   6.479982   5.313497   3.195665
    25  H    5.420040   6.289885   6.404953   5.471603   4.164682
    26  H    6.132551   6.404913   6.586127   6.340634   5.890175
    27  H    5.369553   5.471626   6.340702   6.999232   6.897275
    28  H    3.426656   4.164759   5.890252   6.897275   6.568410
    29  H    2.198161   4.820169   6.531035   6.718739   5.305719
    30  H    2.175056   4.344943   6.431697   7.202646   6.315969
    31  H    1.112359   2.309170   4.630099   5.861662   5.584964
    32  H    1.111034   3.389752   5.269155   5.888483   5.027615
                   21         22         23         24         25
    21  H    0.000000
    22  H    1.751808   0.000000
    23  H    2.346436   2.698012   0.000000
    24  H    3.007221   2.286460   1.773592   0.000000
    25  H    4.820135   4.344863   3.389653   2.309124   0.000000
    26  H    6.531011   6.431662   5.269101   4.630108   2.454444
    27  H    6.718725   7.202660   5.888461   5.861713   4.277032
    28  H    5.305660   6.315954   5.027576   5.584977   4.958553
    29  H    2.258477   3.780218   2.455805   3.816000   4.854113
    30  H    3.780184   5.266486   3.970573   5.127667   5.530183
    31  H    3.815936   5.127664   5.016413   5.664388   6.149941
    32  H    2.455717   3.970570   4.203962   5.016409   6.157789
                   26         27         28         29         30
    26  H    0.000000
    27  H    2.473489   0.000000
    28  H    4.279697   2.460631   0.000000
    29  H    5.915158   5.476989   3.672716   0.000000
    30  H    5.861855   4.697698   2.426651   1.751751   0.000000
    31  H    6.479888   5.313442   3.195637   3.007163   2.286489
    32  H    7.118038   6.445156   4.423038   2.346371   2.698032
                   31         32
    31  H    0.000000
    32  H    1.773617   0.000000
 Stoichiometry    C16H16
 Framework group  C1[X(C16H16)]
 Deg. of freedom    90
 Full point group                 C1      NOp   1
 Largest Abelian subgroup         C1      NOp   1
 Largest concise Abelian subgroup C1      NOp   1
                         Standard orientation:                         
 ---------------------------------------------------------------------
 Center     Atomic      Atomic             Coordinates (Angstroms)
 Number     Number       Type             X           Y           Z
 ---------------------------------------------------------------------
      1          6           0       -1.365409    0.394744    0.837983
      2          6           0       -1.952092   -0.728378    1.451197
      3          6           0       -2.632792   -1.682330    0.693064
      4          6           0       -2.739063   -1.532594   -0.688114
      5          6           0       -2.169581   -0.425360   -1.316935
      6          6           0       -1.494940    0.554459   -0.568273
      7          6           0       -0.835587    1.698242   -1.301799
      8          6           0        0.626381    1.400717   -1.712588
      9          6           0        1.365454    0.394985   -0.837875
     10          6           0        1.951997   -0.727998   -1.451442
     11          6           0        2.632727   -1.682153   -0.693617
     12          6           0        2.739000   -1.532841    0.687685
     13          6           0        2.169576   -0.425859    1.316810
     14          6           0        1.494937    0.554161    0.568503
     15          6           0        0.835716    1.697879    1.302336
     16          6           0       -0.626313    1.400159    1.712958
     17          1           0       -1.878876   -0.873287    2.521899
     18          1           0       -3.075003   -2.542983    1.178227
     19          1           0       -3.259590   -2.278955   -1.274179
     20          1           0       -2.248999   -0.334520   -2.393392
     21          1           0       -0.889681    2.624719   -0.694950
     22          1           0       -1.419535    1.939282   -2.217535
     23          1           0        1.200880    2.351540   -1.724848
     24          1           0        0.610904    1.042017   -2.765379
     25          1           0        1.878780   -0.872506   -2.522173
     26          1           0        3.074841   -2.542715   -1.178993
     27          1           0        3.259503   -2.279435    1.273502
     28          1           0        2.248985   -0.335296    2.393272
     29          1           0        0.889766    2.624446    0.695836
     30          1           0        1.419629    1.938494    2.218120
     31          1           0       -0.610882    1.041139    2.765673
     32          1           0       -1.200781    2.351066    1.725562
 ---------------------------------------------------------------------
 Rotational constants (GHZ):           0.7868957           0.4785808           0.4717658
 Standard basis: 6-31G(d,p) (6D, 7F)
 There are   320 symmetry adapted cartesian basis functions of A   symmetry.
 There are   320 symmetry adapted basis functions of A   symmetry.
   320 basis functions,   560 primitive gaussians,   320 cartesian basis functions
    56 alpha electrons       56 beta electrons
       nuclear repulsion energy      1056.7351036428 Hartrees.
 NAtoms=   32 NActive=   32 NUniq=   32 SFac= 1.00D+00 NAtFMM=   60 NAOKFM=F Big=F
 Integral buffers will be    131072 words long.
 Raffenetti 2 integral format.
 Two-electron integral symmetry is turned on.
 One-electron integrals computed using PRISM.
 NBasis=   320 RedAO= T EigKep=  3.92D-04  NBF=   320
 NBsUse=   320 1.00D-06 EigRej= -1.00D+00 NBFU=   320
 ExpMin= 1.61D-01 ExpMax= 3.05D+03 ExpMxC= 4.57D+02 IAcc=3 IRadAn=         5 AccDes= 0.00D+00
 Harris functional with IExCor=  402 and IRadAn=       5 diagonalized for initial guess.
 HarFok:  IExCor=  402 AccDes= 0.00D+00 IRadAn=         5 IDoV= 1 UseB2=F ITyADJ=14
 ICtDFT=  3500011 ScaDFX=  1.000000  1.000000  1.000000  1.000000
 FoFCou: FMM=F IPFlag=           0 FMFlag=      100000 FMFlg1=           0
         NFxFlg=           0 DoJE=T BraDBF=F KetDBF=T FulRan=T
         wScrn=  0.000000 ICntrl=       500 IOpCl=  0 I1Cent=   200000004 NGrid=           0
         NMat0=    1 NMatS0=      1 NMatT0=    0 NMatD0=    1 NMtDS0=    0 NMtDT0=    0
 Petite list used in FoFCou.
 Requested convergence on RMS density matrix=1.00D-08 within 128 cycles.
 Requested convergence on MAX density matrix=1.00D-06.
 Requested convergence on             energy=1.00D-06.
 No special actions if energy rises.
 Integral accuracy reduced to 1.0D-05 until final iterations.
 Initial convergence to 1.0D-05 achieved.  Increase integral accuracy.
 SCF Done:  E(RB3LYP) =  -619.366664628     A.U. after   14 cycles
            NFock= 14  Conv=0.34D-08     -V/T= 2.0102
 QCSCF skips out because SCF is already converged.

 **********************************************************************

            Population analysis using the SCF Density.

 **********************************************************************

 Orbital symmetries:
       Occupied  (A) (A) (A) (A) (A) (A) (A) (A) (A) (A) (A) (A)
                 (A) (A) (A) (A) (A) (A) (A) (A) (A) (A) (A) (A)
                 (A) (A) (A) (A) (A) (A) (A) (A) (A) (A) (A) (A)
                 (A) (A) (A) (A) (A) (A) (A) (A) (A) (A) (A) (A)
                 (A) (A) (A) (A) (A) (A) (A) (A)
       Virtual   (A) (A) (A) (A) (A) (A) (A) (A) (A) (A) (A) (A)
                 (A) (A) (A) (A) (A) (A) (A) (A) (A) (A) (A) (A)
                 (A) (A) (A) (A) (A) (A) (A) (A) (A) (A) (A) (A)
                 (A) (A) (A) (A) (A) (A) (A) (A) (A) (A) (A) (A)
                 (A) (A) (A) (A) (A) (A) (A) (A) (A) (A) (A) (A)
                 (A) (A) (A) (A) (A) (A) (A) (A) (A) (A) (A) (A)
                 (A) (A) (A) (A) (A) (A) (A) (A) (A) (A) (A) (A)
                 (A) (A) (A) (A) (A) (A) (A) (A) (A) (A) (A) (A)
                 (A) (A) (A) (A) (A) (A) (A) (A) (A) (A) (A) (A)
                 (A) (A) (A) (A) (A) (A) (A) (A) (A) (A) (A) (A)
                 (A) (A) (A) (A) (A) (A) (A) (A) (A) (A) (A) (A)
                 (A) (A) (A) (A) (A) (A) (A) (A) (A) (A) (A) (A)
                 (A) (A) (A) (A) (A) (A) (A) (A) (A) (A) (A) (A)
                 (A) (A) (A) (A) (A) (A) (A) (A) (A) (A) (A) (A)
                 (A) (A) (A) (A) (A) (A) (A) (A) (A) (A) (A) (A)
                 (A) (A) (A) (A) (A) (A) (A) (A) (A) (A) (A) (A)
                 (A) (A) (A) (A) (A) (A) (A) (A) (A) (A) (A) (A)
                 (A) (A) (A) (A) (A) (A) (A) (A) (A) (A) (A) (A)
                 (A) (A) (A) (A) (A) (A) (A) (A) (A) (A) (A) (A)
                 (A) (A) (A) (A) (A) (A) (A) (A) (A) (A) (A) (A)
                 (A) (A) (A) (A) (A) (A) (A) (A) (A) (A) (A) (A)
                 (A) (A) (A) (A) (A) (A) (A) (A) (A) (A) (A) (A)
 The electronic state is 1-A.
 Alpha  occ. eigenvalues --  -10.19110 -10.19110 -10.18960 -10.18959 -10.18860
 Alpha  occ. eigenvalues --  -10.18858 -10.18786 -10.18785 -10.17940 -10.17939
 Alpha  occ. eigenvalues --  -10.17917 -10.17917 -10.17851 -10.17851 -10.17797
 Alpha  occ. eigenvalues --  -10.17797  -0.85824  -0.84053  -0.79083  -0.78406
 Alpha  occ. eigenvalues --   -0.74583  -0.74135  -0.71361  -0.68999  -0.64670
 Alpha  occ. eigenvalues --   -0.61642  -0.59585  -0.57701  -0.57373  -0.53971
 Alpha  occ. eigenvalues --   -0.50074  -0.48006  -0.47750  -0.45642  -0.44592
 Alpha  occ. eigenvalues --   -0.44226  -0.43135  -0.42523  -0.40746  -0.40672
 Alpha  occ. eigenvalues --   -0.39287  -0.39198  -0.38423  -0.37198  -0.35087
 Alpha  occ. eigenvalues --   -0.34169  -0.33701  -0.33441  -0.33258  -0.32695
 Alpha  occ. eigenvalues --   -0.31281  -0.30794  -0.23790  -0.23509  -0.23119
 Alpha  occ. eigenvalues --   -0.22464
 Alpha virt. eigenvalues --   -0.00004   0.00381   0.00860   0.01660   0.07680
 Alpha virt. eigenvalues --    0.09009   0.10162   0.11131   0.11987   0.14068
 Alpha virt. eigenvalues --    0.14682   0.15258   0.15662   0.17234   0.17276
 Alpha virt. eigenvalues --    0.18137   0.18251   0.19883   0.20505   0.20891
 Alpha virt. eigenvalues --    0.21326   0.22181   0.22678   0.22798   0.24934
 Alpha virt. eigenvalues --    0.27758   0.28931   0.29438   0.32046   0.32806
 Alpha virt. eigenvalues --    0.33242   0.35153   0.35204   0.36380   0.36743
 Alpha virt. eigenvalues --    0.40239   0.46735   0.49219   0.49383   0.51015
 Alpha virt. eigenvalues --    0.51443   0.52785   0.52916   0.53737   0.54940
 Alpha virt. eigenvalues --    0.55716   0.56057   0.57562   0.58039   0.58985
 Alpha virt. eigenvalues --    0.58997   0.60061   0.61220   0.61645   0.61647
 Alpha virt. eigenvalues --    0.62019   0.62066   0.62386   0.64358   0.65228
 Alpha virt. eigenvalues --    0.65324   0.66252   0.66462   0.68819   0.70660
 Alpha virt. eigenvalues --    0.70889   0.72242   0.73817   0.74871   0.76464
 Alpha virt. eigenvalues --    0.77798   0.78798   0.79462   0.80629   0.80635
 Alpha virt. eigenvalues --    0.82145   0.82357   0.82863   0.82988   0.83564
 Alpha virt. eigenvalues --    0.84690   0.85612   0.87051   0.87063   0.89139
 Alpha virt. eigenvalues --    0.90135   0.90531   0.92472   0.93110   0.93931
 Alpha virt. eigenvalues --    0.95361   0.96316   0.97396   0.97952   0.98932
 Alpha virt. eigenvalues --    1.02456   1.03185   1.05898   1.06403   1.07269
 Alpha virt. eigenvalues --    1.10403   1.15448   1.15865   1.16630   1.17529
 Alpha virt. eigenvalues --    1.19572   1.20197   1.22716   1.26054   1.26765
 Alpha virt. eigenvalues --    1.28183   1.32028   1.34897   1.36689   1.37898
 Alpha virt. eigenvalues --    1.39319   1.41581   1.42175   1.42250   1.42597
 Alpha virt. eigenvalues --    1.42970   1.43597   1.46243   1.49097   1.49290
 Alpha virt. eigenvalues --    1.53492   1.55017   1.62202   1.64724   1.68738
 Alpha virt. eigenvalues --    1.69232   1.71311   1.74915   1.75070   1.76606
 Alpha virt. eigenvalues --    1.79637   1.81286   1.81623   1.82179   1.83042
 Alpha virt. eigenvalues --    1.84892   1.86658   1.87605   1.88218   1.88969
 Alpha virt. eigenvalues --    1.90228   1.91047   1.93096   1.93593   1.94939
 Alpha virt. eigenvalues --    1.96637   1.97473   1.97780   1.98587   2.00927
 Alpha virt. eigenvalues --    2.01333   2.01917   2.03580   2.06495   2.07558
 Alpha virt. eigenvalues --    2.07591   2.09898   2.10383   2.11272   2.14958
 Alpha virt. eigenvalues --    2.17982   2.18875   2.20690   2.22736   2.23020
 Alpha virt. eigenvalues --    2.25185   2.26934   2.28805   2.29822   2.30244
 Alpha virt. eigenvalues --    2.30782   2.31462   2.31977   2.32692   2.35471
 Alpha virt. eigenvalues --    2.36730   2.37306   2.37731   2.39852   2.40088
 Alpha virt. eigenvalues --    2.42964   2.43481   2.44179   2.45960   2.46686
 Alpha virt. eigenvalues --    2.46880   2.47380   2.48522   2.49144   2.52874
 Alpha virt. eigenvalues --    2.54074   2.56051   2.56804   2.57127   2.58909
 Alpha virt. eigenvalues --    2.58983   2.59219   2.61669   2.63369   2.64525
 Alpha virt. eigenvalues --    2.64908   2.65190   2.65876   2.69862   2.70217
 Alpha virt. eigenvalues --    2.71795   2.73132   2.75556   2.76062   2.76608
 Alpha virt. eigenvalues --    2.78233   2.79676   2.81547   2.83102   2.85594
 Alpha virt. eigenvalues --    2.90037   2.92401   2.94124   2.98879   3.04044
 Alpha virt. eigenvalues --    3.05349   3.06985   3.12904   3.19515   3.22254
 Alpha virt. eigenvalues --    3.24034   3.25765   3.25823   3.26034   3.29719
 Alpha virt. eigenvalues --    3.30323   3.33818   3.35966   3.37028   3.37818
 Alpha virt. eigenvalues --    3.44596   3.45992   3.48248   3.48430   3.50698
 Alpha virt. eigenvalues --    3.52210   3.85715   3.86184   4.08984   4.15173
 Alpha virt. eigenvalues --    4.15455   4.15669   4.20772   4.30980   4.34682
 Alpha virt. eigenvalues --    4.36281   4.45441   4.51091   4.54688   4.54933
 Alpha virt. eigenvalues --    4.71290   4.76142   4.83027   4.91819
          Condensed to atoms (all electrons):
               1          2          3          4          5          6
     1  C    4.765227   0.521315  -0.028891  -0.038898  -0.022419   0.533796
     2  C    0.521315   4.923516   0.516191  -0.030968  -0.056016  -0.021809
     3  C   -0.028891   0.516191   4.825895   0.550475  -0.031848  -0.040437
     4  C   -0.038898  -0.030968   0.550475   4.822482   0.518136  -0.026207
     5  C   -0.022419  -0.056016  -0.031848   0.518136   4.925909   0.513843
     6  C    0.533796  -0.021809  -0.040437  -0.026207   0.513843   4.794770
     7  C   -0.058686   0.007882   0.000025   0.006977  -0.067809   0.363856
     8  C   -0.006926  -0.000249   0.000055  -0.000152  -0.000197  -0.050246
     9  C    0.007032   0.000257  -0.000019  -0.000080  -0.001282   0.000122
    10  C    0.000257  -0.000067   0.000025   0.000029  -0.000046   0.001070
    11  C   -0.000019   0.000025   0.000002  -0.000017   0.000020  -0.000027
    12  C   -0.000080   0.000029  -0.000017  -0.000001   0.000008   0.000032
    13  C   -0.001282  -0.000046   0.000020   0.000008  -0.000022   0.000001
    14  C    0.000130   0.001070  -0.000027   0.000032   0.000001  -0.006198
    15  C   -0.041999   0.001177  -0.000207   0.000039  -0.000251  -0.007241
    16  C    0.361747  -0.057403   0.007190   0.000002   0.007689  -0.060126
    17  H   -0.038549   0.361878  -0.044714   0.004778   0.000695   0.004909
    18  H    0.003956  -0.038081   0.363782  -0.041905   0.004602   0.001057
    19  H    0.001070   0.004590  -0.041747   0.363457  -0.038302   0.003908
    20  H    0.004458   0.000677   0.004846  -0.043463   0.364279  -0.042545
    21  H   -0.011035  -0.000068   0.000021  -0.000255   0.004767  -0.026507
    22  H    0.004302  -0.000190   0.000009   0.000152  -0.008356  -0.026484
    23  H    0.000553   0.000005  -0.000000   0.000004  -0.000119   0.004258
    24  H   -0.000290   0.000007  -0.000000  -0.000027   0.002138  -0.002356
    25  H   -0.000008  -0.000001   0.000000   0.000006   0.000044  -0.000012
    26  H   -0.000000   0.000000   0.000000  -0.000000  -0.000001  -0.000001
    27  H   -0.000000  -0.000002  -0.000000   0.000000   0.000000   0.000000
    28  H    0.000177   0.000025   0.000001   0.000000   0.000000  -0.000005
    29  H   -0.002855  -0.000149   0.000008  -0.000001   0.000019   0.001800
    30  H    0.003618  -0.000040   0.000002  -0.000000   0.000006   0.000080
    31  H   -0.030755  -0.007774   0.000307   0.000005  -0.000165   0.004376
    32  H   -0.028440   0.001145  -0.000276   0.000034  -0.000106  -0.005032
               7          8          9         10         11         12
     1  C   -0.058686  -0.006926   0.007032   0.000257  -0.000019  -0.000080
     2  C    0.007882  -0.000249   0.000257  -0.000067   0.000025   0.000029
     3  C    0.000025   0.000055  -0.000019   0.000025   0.000002  -0.000017
     4  C    0.006977  -0.000152  -0.000080   0.000029  -0.000017  -0.000001
     5  C   -0.067809  -0.000197  -0.001282  -0.000046   0.000020   0.000008
     6  C    0.363856  -0.050246   0.000122   0.001070  -0.000027   0.000032
     7  C    5.108281   0.306195  -0.042007   0.001175  -0.000207   0.000039
     8  C    0.306195   5.086109   0.361745  -0.057397   0.007190   0.000002
     9  C   -0.042007   0.361745   4.765307   0.521321  -0.028896  -0.038903
    10  C    0.001175  -0.057397   0.521321   4.923459   0.516203  -0.030963
    11  C   -0.000207   0.007190  -0.028896   0.516203   4.825941   0.550446
    12  C    0.000039   0.000002  -0.038903  -0.030963   0.550446   4.822498
    13  C   -0.000251   0.007687  -0.022421  -0.056010  -0.031850   0.518159
    14  C   -0.007239  -0.060118   0.533787  -0.021816  -0.040438  -0.026209
    15  C    0.002054  -0.013608  -0.058678   0.007881   0.000025   0.006978
    16  C   -0.013613   0.001821  -0.006928  -0.000249   0.000055  -0.000152
    17  H   -0.000156  -0.000000  -0.000008  -0.000001   0.000000   0.000006
    18  H    0.000009   0.000000  -0.000000   0.000000   0.000000  -0.000000
    19  H   -0.000207   0.000003  -0.000000  -0.000002  -0.000000   0.000000
    20  H   -0.009169   0.000188   0.000177   0.000025   0.000001   0.000000
    21  H    0.363544  -0.034024  -0.002854  -0.000149   0.000008  -0.000001
    22  H    0.365762  -0.032359   0.003619  -0.000040   0.000002  -0.000000
    23  H   -0.034833   0.357233  -0.028437   0.001146  -0.000277   0.000034
    24  H   -0.033775   0.371425  -0.030755  -0.007775   0.000307   0.000005
    25  H    0.000237  -0.010826  -0.038551   0.361881  -0.044715   0.004778
    26  H    0.000002  -0.000193   0.003956  -0.038082   0.363783  -0.041903
    27  H    0.000000   0.000009   0.001070   0.004588  -0.041744   0.363454
    28  H    0.000002  -0.000151   0.004459   0.000677   0.004846  -0.043468
    29  H   -0.003526   0.004777  -0.011033  -0.000067   0.000021  -0.000255
    30  H   -0.000036   0.000023   0.004302  -0.000190   0.000009   0.000152
    31  H    0.000155  -0.000006  -0.000289   0.000007  -0.000000  -0.000027
    32  H    0.000627  -0.000461   0.000553   0.000005  -0.000000   0.000004
              13         14         15         16         17         18
     1  C   -0.001282   0.000130  -0.041999   0.361747  -0.038549   0.003956
     2  C   -0.000046   0.001070   0.001177  -0.057403   0.361878  -0.038081
     3  C    0.000020  -0.000027  -0.000207   0.007190  -0.044714   0.363782
     4  C    0.000008   0.000032   0.000039   0.000002   0.004778  -0.041905
     5  C   -0.000022   0.000001  -0.000251   0.007689   0.000695   0.004602
     6  C    0.000001  -0.006198  -0.007241  -0.060126   0.004909   0.001057
     7  C   -0.000251  -0.007239   0.002054  -0.013613  -0.000156   0.000009
     8  C    0.007687  -0.060118  -0.013608   0.001821  -0.000000   0.000000
     9  C   -0.022421   0.533787  -0.058678  -0.006928  -0.000008  -0.000000
    10  C   -0.056010  -0.021816   0.007881  -0.000249  -0.000001   0.000000
    11  C   -0.031850  -0.040438   0.000025   0.000055   0.000000   0.000000
    12  C    0.518159  -0.026209   0.006978  -0.000152   0.000006  -0.000000
    13  C    4.925832   0.513875  -0.067803  -0.000194   0.000044  -0.000001
    14  C    0.513875   4.794758   0.363849  -0.050251  -0.000012  -0.000001
    15  C   -0.067803   0.363849   5.108226   0.306177   0.000237   0.000002
    16  C   -0.000194  -0.050251   0.306177   5.086192  -0.010825  -0.000193
    17  H    0.000044  -0.000012   0.000237  -0.010825   0.644865  -0.006220
    18  H   -0.000001  -0.000001   0.000002  -0.000193  -0.006220   0.641192
    19  H    0.000000   0.000000   0.000000   0.000009  -0.000216  -0.006293
    20  H    0.000000  -0.000005   0.000002  -0.000151   0.000019  -0.000216
    21  H    0.000019   0.001800  -0.003530   0.004780  -0.000005  -0.000000
    22  H    0.000006   0.000080  -0.000036   0.000023   0.000003  -0.000000
    23  H   -0.000106  -0.005030   0.000628  -0.000461  -0.000000   0.000000
    24  H   -0.000165   0.004375   0.000154  -0.000006  -0.000000  -0.000000
    25  H    0.000695   0.004909  -0.000156  -0.000000  -0.000000  -0.000000
    26  H    0.004602   0.001057   0.000009   0.000000  -0.000000  -0.000000
    27  H   -0.038300   0.003908  -0.000207   0.000003  -0.000000   0.000000
    28  H    0.364280  -0.042549  -0.009172   0.000189  -0.000000  -0.000000
    29  H    0.004766  -0.026500   0.363571  -0.034022  -0.000005  -0.000000
    30  H   -0.008355  -0.026486   0.365774  -0.032351  -0.000032  -0.000000
    31  H    0.002138  -0.002356  -0.033771   0.371410   0.007002  -0.000014
    32  H   -0.000119   0.004258  -0.034838   0.357227   0.000259   0.000004
              19         20         21         22         23         24
     1  C    0.001070   0.004458  -0.011035   0.004302   0.000553  -0.000290
     2  C    0.004590   0.000677  -0.000068  -0.000190   0.000005   0.000007
     3  C   -0.041747   0.004846   0.000021   0.000009  -0.000000  -0.000000
     4  C    0.363457  -0.043463  -0.000255   0.000152   0.000004  -0.000027
     5  C   -0.038302   0.364279   0.004767  -0.008356  -0.000119   0.002138
     6  C    0.003908  -0.042545  -0.026507  -0.026484   0.004258  -0.002356
     7  C   -0.000207  -0.009169   0.363544   0.365762  -0.034833  -0.033775
     8  C    0.000003   0.000188  -0.034024  -0.032359   0.357233   0.371425
     9  C   -0.000000   0.000177  -0.002854   0.003619  -0.028437  -0.030755
    10  C   -0.000002   0.000025  -0.000149  -0.000040   0.001146  -0.007775
    11  C   -0.000000   0.000001   0.000008   0.000002  -0.000277   0.000307
    12  C    0.000000   0.000000  -0.000001  -0.000000   0.000034   0.000005
    13  C    0.000000   0.000000   0.000019   0.000006  -0.000106  -0.000165
    14  C    0.000000  -0.000005   0.001800   0.000080  -0.005030   0.004375
    15  C    0.000000   0.000002  -0.003530  -0.000036   0.000628   0.000154
    16  C    0.000009  -0.000151   0.004780   0.000023  -0.000461  -0.000006
    17  H   -0.000216   0.000019  -0.000005   0.000003  -0.000000  -0.000000
    18  H   -0.006293  -0.000216  -0.000000  -0.000000   0.000000  -0.000000
    19  H    0.641762  -0.006111   0.000003  -0.000010  -0.000000  -0.000000
    20  H   -0.006111   0.646955   0.000136   0.005175  -0.000024   0.000216
    21  H    0.000003   0.000136   0.645173  -0.036730  -0.011358   0.005662
    22  H   -0.000010   0.005175  -0.036730   0.634611   0.002857  -0.012361
    23  H   -0.000000  -0.000024  -0.011358   0.002857   0.637649  -0.034647
    24  H   -0.000000   0.000216   0.005662  -0.012361  -0.034647   0.632657
    25  H   -0.000000  -0.000000  -0.000005  -0.000032   0.000259   0.007002
    26  H    0.000000  -0.000000  -0.000000  -0.000000   0.000004  -0.000014
    27  H   -0.000000  -0.000000   0.000000   0.000000  -0.000000  -0.000000
    28  H   -0.000000  -0.000000   0.000000  -0.000000   0.000000   0.000002
    29  H    0.000000   0.000000   0.001290   0.000184   0.002609  -0.000007
    30  H    0.000000  -0.000000   0.000184  -0.000003   0.000031  -0.000000
    31  H   -0.000000   0.000002  -0.000007  -0.000000  -0.000001   0.000001
    32  H   -0.000000   0.000000   0.002611   0.000031   0.000062  -0.000001
              25         26         27         28         29         30
     1  C   -0.000008  -0.000000  -0.000000   0.000177  -0.002855   0.003618
     2  C   -0.000001   0.000000  -0.000002   0.000025  -0.000149  -0.000040
     3  C    0.000000   0.000000  -0.000000   0.000001   0.000008   0.000002
     4  C    0.000006  -0.000000   0.000000   0.000000  -0.000001  -0.000000
     5  C    0.000044  -0.000001   0.000000   0.000000   0.000019   0.000006
     6  C   -0.000012  -0.000001   0.000000  -0.000005   0.001800   0.000080
     7  C    0.000237   0.000002   0.000000   0.000002  -0.003526  -0.000036
     8  C   -0.010826  -0.000193   0.000009  -0.000151   0.004777   0.000023
     9  C   -0.038551   0.003956   0.001070   0.004459  -0.011033   0.004302
    10  C    0.361881  -0.038082   0.004588   0.000677  -0.000067  -0.000190
    11  C   -0.044715   0.363783  -0.041744   0.004846   0.000021   0.000009
    12  C    0.004778  -0.041903   0.363454  -0.043468  -0.000255   0.000152
    13  C    0.000695   0.004602  -0.038300   0.364280   0.004766  -0.008355
    14  C    0.004909   0.001057   0.003908  -0.042549  -0.026500  -0.026486
    15  C   -0.000156   0.000009  -0.000207  -0.009172   0.363571   0.365774
    16  C   -0.000000   0.000000   0.000003   0.000189  -0.034022  -0.032351
    17  H   -0.000000  -0.000000  -0.000000  -0.000000  -0.000005  -0.000032
    18  H   -0.000000  -0.000000   0.000000  -0.000000  -0.000000  -0.000000
    19  H   -0.000000   0.000000  -0.000000  -0.000000   0.000000   0.000000
    20  H   -0.000000  -0.000000  -0.000000  -0.000000   0.000000  -0.000000
    21  H   -0.000005  -0.000000   0.000000   0.000000   0.001290   0.000184
    22  H   -0.000032  -0.000000   0.000000  -0.000000   0.000184  -0.000003
    23  H    0.000259   0.000004  -0.000000   0.000000   0.002609   0.000031
    24  H    0.007002  -0.000014  -0.000000   0.000002  -0.000007  -0.000000
    25  H    0.644868  -0.006220  -0.000215   0.000019  -0.000005   0.000003
    26  H   -0.006220   0.641191  -0.006291  -0.000216  -0.000000  -0.000000
    27  H   -0.000215  -0.006291   0.641761  -0.006113   0.000003  -0.000010
    28  H    0.000019  -0.000216  -0.006113   0.646967   0.000136   0.005176
    29  H   -0.000005  -0.000000   0.000003   0.000136   0.645115  -0.036731
    30  H    0.000003  -0.000000  -0.000010   0.005176  -0.036731   0.634581
    31  H   -0.000000  -0.000000  -0.000000   0.000215   0.005662  -0.012360
    32  H   -0.000000   0.000000  -0.000000  -0.000024  -0.011358   0.002857
              31         32
     1  C   -0.030755  -0.028440
     2  C   -0.007774   0.001145
     3  C    0.000307  -0.000276
     4  C    0.000005   0.000034
     5  C   -0.000165  -0.000106
     6  C    0.004376  -0.005032
     7  C    0.000155   0.000627
     8  C   -0.000006  -0.000461
     9  C   -0.000289   0.000553
    10  C    0.000007   0.000005
    11  C   -0.000000  -0.000000
    12  C   -0.000027   0.000004
    13  C    0.002138  -0.000119
    14  C   -0.002356   0.004258
    15  C   -0.033771  -0.034838
    16  C    0.371410   0.357227
    17  H    0.007002   0.000259
    18  H   -0.000014   0.000004
    19  H   -0.000000  -0.000000
    20  H    0.000002   0.000000
    21  H   -0.000007   0.002611
    22  H   -0.000000   0.000031
    23  H   -0.000001   0.000062
    24  H    0.000001  -0.000001
    25  H   -0.000000  -0.000000
    26  H   -0.000000   0.000000
    27  H   -0.000000  -0.000000
    28  H    0.000215  -0.000024
    29  H    0.005662  -0.011358
    30  H   -0.012360   0.002857
    31  H    0.632673  -0.034645
    32  H   -0.034645   0.637679
 Mulliken charges:
               1
     1  C    0.103495
     2  C   -0.126926
     3  C   -0.080669
     4  C   -0.084641
     5  C   -0.115214
     6  C    0.087355
     7  C   -0.255310
     8  C   -0.237548
     9  C    0.103435
    10  C   -0.126898
    11  C   -0.080692
    12  C   -0.084644
    13  C   -0.115204
    14  C    0.087348
    15  C   -0.255289
    16  C   -0.237586
    17  H    0.076047
    18  H    0.078320
    19  H    0.078086
    20  H    0.074529
    21  H    0.096531
    22  H    0.099787
    23  H    0.107963
    24  H    0.098229
    25  H    0.076046
    26  H    0.078318
    27  H    0.078086
    28  H    0.074526
    29  H    0.096556
    30  H    0.099799
    31  H    0.098220
    32  H    0.107948
 Sum of Mulliken charges =  -0.00000
 Mulliken charges with hydrogens summed into heavy atoms:
               1
     1  C    0.103495
     2  C   -0.050879
     3  C   -0.002349
     4  C   -0.006555
     5  C   -0.040685
     6  C    0.087355
     7  C   -0.058991
     8  C   -0.031357
     9  C    0.103435
    10  C   -0.050852
    11  C   -0.002374
    12  C   -0.006558
    13  C   -0.040679
    14  C    0.087348
    15  C   -0.058934
    16  C   -0.031419
 Electronic spatial extent (au):  <R**2>=           3010.0877
 Charge=             -0.0000 electrons
 Dipole moment (field-independent basis, Debye):
    X=              0.0001    Y=              0.4788    Z=              0.0000  Tot=              0.4788
 Quadrupole moment (field-independent basis, Debye-Ang):
   XX=            -97.9515   YY=            -89.7325   ZZ=            -86.2287
   XY=              0.0008   XZ=              1.4189   YZ=             -0.0008
 Traceless Quadrupole moment (field-independent basis, Debye-Ang):
   XX=             -6.6472   YY=              1.5717   ZZ=              5.0755
   XY=              0.0008   XZ=              1.4189   YZ=             -0.0008
 Octapole moment (field-independent basis, Debye-Ang**2):
  XXX=             -0.0017  YYY=             -1.3683  ZZZ=             -0.0029  XYY=              0.0010
  XXY=            -18.4763  XXZ=             -0.0018  XZZ=              0.0012  YZZ=             -3.0660
  YYZ=              0.0009  XYZ=              1.1847
 Hexadecapole moment (field-independent basis, Debye-Ang**3):
 XXXX=          -2226.4803 YYYY=          -1022.4471 ZZZZ=           -958.5639 XXXY=              0.0102
 XXXZ=             20.0102 YYYX=              0.0049 YYYZ=              0.0004 ZZZX=             10.3499
 ZZZY=             -0.0064 XXYY=           -476.0492 XXZZ=           -498.8629 YYZZ=           -334.3371
 XXYZ=              0.0025 YYXZ=             -3.6565 ZZXY=              0.0006
 N-N= 1.056735103643D+03 E-N=-3.546827118708D+03  KE= 6.131050127545D+02
 Calling FoFJK, ICntrl=      2127 FMM=F ISym2X=0 I1Cent= 0 IOpClX= 0 NMat=1 NMatS=1 NMatT=0.
 ***** Axes restored to original set *****
 -------------------------------------------------------------------
 Center     Atomic                   Forces (Hartrees/Bohr)
 Number     Number              X              Y              Z
 -------------------------------------------------------------------
      1        6          -0.004174303    0.001727784    0.003318417
      2        6          -0.001330703   -0.010450807   -0.003569962
      3        6           0.000346355   -0.000374953   -0.002218924
      4        6           0.000964126    0.000515228   -0.000784450
      5        6           0.000593134    0.011343259    0.001922159
      6        6          -0.000779321    0.000788234    0.005204995
      7        6          -0.012873279    0.002981354   -0.013808416
      8        6           0.008820169   -0.006764272   -0.005250309
      9        6           0.004453781   -0.002518054    0.002226654
     10        6           0.001131901    0.011069550   -0.000527252
     11        6          -0.000570921    0.001060192   -0.001951563
     12        6          -0.001023753   -0.000378043   -0.000740695
     13        6          -0.000582721   -0.011378524   -0.001408699
     14        6           0.001287586   -0.002312895    0.004556293
     15        6           0.011269667    0.001323692   -0.015224158
     16        6          -0.009205837    0.007915095   -0.002165495
     17        1           0.002051028    0.002781547   -0.001815661
     18        1          -0.000865977    0.001310641    0.002321361
     19        1          -0.001416871   -0.001879197    0.001715797
     20        1          -0.000006476   -0.001941063   -0.003194666
     21        1           0.001816646   -0.004067883    0.007319163
     22        1           0.006189639    0.006886233    0.004394293
     23        1          -0.004700302   -0.001896146    0.005554103
     24        1           0.004639563    0.011124445    0.000723510
     25        1          -0.002273315   -0.002187159   -0.002311023
     26        1           0.001090575   -0.001919413    0.001745161
     27        1           0.001612919    0.001319427    0.002018800
     28        1          -0.000292597    0.002795510   -0.002474236
     29        1          -0.000972666    0.001720866    0.008274775
     30        1          -0.005785355   -0.007924080    0.002826566
     31        1          -0.004707022   -0.010944036   -0.002048435
     32        1           0.005294332    0.000273470    0.005371899
 -------------------------------------------------------------------
 Cartesian Forces:  Max     0.015224158 RMS     0.005129280

 GradGradGradGradGradGradGradGradGradGradGradGradGradGradGradGradGradGrad
 Berny optimization.
 FormGI is forming the generalized inverse of G from B-inverse, IUseBI=4.
 Internal  Forces:  Max     0.011136618 RMS     0.003245021
 Search for a local minimum.
 Step number   1 out of a maximum of  192
 All quantities printed in internal units (Hartrees-Bohrs-Radians)
 Mixed Optimization -- RFO/linear search
 Second derivative matrix not updated -- first step.
 ITU=  0
     Eigenvalues ---    0.00319   0.00586   0.01085   0.01199   0.01208
     Eigenvalues ---    0.01348   0.01511   0.01578   0.02058   0.02058
     Eigenvalues ---    0.02069   0.02069   0.02081   0.02082   0.02151
     Eigenvalues ---    0.02151   0.02158   0.02159   0.02168   0.02168
     Eigenvalues ---    0.02604   0.03209   0.03599   0.04314   0.04977
     Eigenvalues ---    0.05284   0.05301   0.05819   0.07243   0.09175
     Eigenvalues ---    0.09367   0.09549   0.09626   0.09763   0.09774
     Eigenvalues ---    0.11893   0.13638   0.16000   0.16000   0.16000
     Eigenvalues ---    0.16000   0.16000   0.16000   0.16000   0.16000
     Eigenvalues ---    0.17026   0.18796   0.22000   0.22000   0.22403
     Eigenvalues ---    0.22566   0.22932   0.23417   0.24155   0.24515
     Eigenvalues ---    0.24629   0.26485   0.27815   0.28545   0.29229
     Eigenvalues ---    0.30586   0.30834   0.32336   0.32344   0.32352
     Eigenvalues ---    0.32355   0.32491   0.32497   0.32722   0.32734
     Eigenvalues ---    0.35611   0.35613   0.35641   0.35644   0.35702
     Eigenvalues ---    0.35704   0.35710   0.35712   0.37375   0.40074
     Eigenvalues ---    0.41186   0.41216   0.43403   0.43884   0.45432
     Eigenvalues ---    0.45530   0.45650   0.45657   0.46538   0.46540
 RFO step:  Lambda=-8.02403655D-03 EMin= 3.19457436D-03
 Linear search not attempted -- first point.
 Maximum step size (   0.050) exceeded in Quadratic search.
    -- Step size scaled by   0.303
 Iteration  1 RMS(Cart)=  0.03106166 RMS(Int)=  0.00010950
 Iteration  2 RMS(Cart)=  0.00022005 RMS(Int)=  0.00001248
 Iteration  3 RMS(Cart)=  0.00000001 RMS(Int)=  0.00001248
 Variable       Old X    -DE/DX   Delta X   Delta X   Delta X     New X
                                 (Linear)    (Quad)   (Total)
    R1        2.66018  -0.00626   0.00000  -0.00432  -0.00432   2.65586
    R2        2.68570  -0.01054   0.00000  -0.00782  -0.00782   2.67789
    R3        2.88002  -0.00321   0.00000  -0.00240  -0.00241   2.87761
    R4        2.63760  -0.00076   0.00000  -0.00033  -0.00033   2.63727
    R5        2.04646   0.00248   0.00000   0.00207   0.00207   2.04853
    R6        2.63301  -0.00130   0.00000  -0.00055  -0.00055   2.63246
    R7        2.04550   0.00278   0.00000   0.00231   0.00231   2.04781
    R8        2.63594  -0.00031   0.00000  -0.00008  -0.00008   2.63586
    R9        2.04534   0.00291   0.00000   0.00241   0.00241   2.04775
   R10        2.65618  -0.00453   0.00000  -0.00319  -0.00318   2.65299
   R11        2.04695   0.00257   0.00000   0.00214   0.00214   2.04909
   R12        2.85408   0.00248   0.00000   0.00150   0.00152   2.85560
   R13        2.92427   0.00972   0.00000   0.01052   0.01052   2.93479
   R14        2.09543  -0.00824   0.00000  -0.00746  -0.00746   2.08797
   R15        2.10233  -0.01014   0.00000  -0.00928  -0.00928   2.09305
   R16        2.88011  -0.00323   0.00000  -0.00242  -0.00243   2.87768
   R17        2.09944  -0.00723   0.00000  -0.00659  -0.00659   2.09285
   R18        2.10200  -0.01112   0.00000  -0.01017  -0.01017   2.09182
   R19        2.66015  -0.00624   0.00000  -0.00430  -0.00431   2.65584
   R20        2.68581  -0.01058   0.00000  -0.00785  -0.00785   2.67796
   R21        2.63757  -0.00075   0.00000  -0.00032  -0.00032   2.63725
   R22        2.04642   0.00250   0.00000   0.00208   0.00208   2.04850
   R23        2.63316  -0.00136   0.00000  -0.00059  -0.00059   2.63256
   R24        2.04547   0.00279   0.00000   0.00232   0.00232   2.04779
   R25        2.63578  -0.00024   0.00000  -0.00004  -0.00004   2.63574
   R26        2.04537   0.00289   0.00000   0.00240   0.00240   2.04777
   R27        2.65608  -0.00449   0.00000  -0.00316  -0.00316   2.65293
   R28        2.04691   0.00258   0.00000   0.00215   0.00215   2.04906
   R29        2.85416   0.00247   0.00000   0.00149   0.00150   2.85566
   R30        2.92436   0.00970   0.00000   0.01051   0.01050   2.93487
   R31        2.09520  -0.00818   0.00000  -0.00740  -0.00740   2.08780
   R32        2.10220  -0.01010   0.00000  -0.00924  -0.00924   2.09296
   R33        2.10205  -0.01114   0.00000  -0.01019  -0.01019   2.09186
   R34        2.09955  -0.00726   0.00000  -0.00662  -0.00662   2.09293
    A1        2.07454   0.00085   0.00000  -0.00042  -0.00042   2.07412
    A2        2.06958   0.00356   0.00000   0.00386   0.00387   2.07345
    A3        2.13902  -0.00441   0.00000  -0.00347  -0.00348   2.13554
    A4        2.10823   0.00293   0.00000   0.00400   0.00400   2.11223
    A5        2.10514  -0.00454   0.00000  -0.00754  -0.00754   2.09759
    A6        2.06980   0.00161   0.00000   0.00356   0.00356   2.07335
    A7        2.09691  -0.00290   0.00000  -0.00293  -0.00294   2.09398
    A8        2.09349   0.00112   0.00000   0.00087   0.00087   2.09436
    A9        2.09277   0.00178   0.00000   0.00207   0.00207   2.09485
   A10        2.09560  -0.00326   0.00000  -0.00351  -0.00351   2.09208
   A11        2.09362   0.00183   0.00000   0.00212   0.00212   2.09574
   A12        2.09396   0.00143   0.00000   0.00140   0.00140   2.09536
   A13        2.10503   0.00328   0.00000   0.00427   0.00427   2.10930
   A14        2.07674   0.00098   0.00000   0.00261   0.00261   2.07935
   A15        2.10139  -0.00426   0.00000  -0.00686  -0.00686   2.09453
   A16        2.08568  -0.00089   0.00000  -0.00117  -0.00121   2.08448
   A17        2.12455  -0.00339   0.00000  -0.00401  -0.00401   2.12054
   A18        2.07005   0.00435   0.00000   0.00604   0.00601   2.07606
   A19        1.97770   0.00681   0.00000   0.00845   0.00847   1.98617
   A20        1.92374  -0.00162   0.00000  -0.00285  -0.00284   1.92090
   A21        1.91209  -0.00328   0.00000  -0.00437  -0.00438   1.90771
   A22        1.93052  -0.00336   0.00000  -0.00455  -0.00455   1.92597
   A23        1.89552  -0.00105   0.00000  -0.00116  -0.00115   1.89436
   A24        1.81712   0.00204   0.00000   0.00405   0.00404   1.82116
   A25        2.01824   0.00407   0.00000   0.00881   0.00879   2.02703
   A26        1.90384  -0.00267   0.00000  -0.00481  -0.00480   1.89904
   A27        1.87560   0.00263   0.00000   0.00733   0.00735   1.88296
   A28        1.89688   0.00009   0.00000   0.00136   0.00135   1.89823
   A29        1.91469  -0.00459   0.00000  -0.01142  -0.01144   1.90325
   A30        1.84704   0.00016   0.00000  -0.00220  -0.00221   1.84483
   A31        2.06954   0.00357   0.00000   0.00388   0.00388   2.07342
   A32        2.13908  -0.00443   0.00000  -0.00349  -0.00350   2.13558
   A33        2.07452   0.00086   0.00000  -0.00041  -0.00041   2.07410
   A34        2.10821   0.00294   0.00000   0.00402   0.00401   2.11222
   A35        2.10511  -0.00454   0.00000  -0.00754  -0.00754   2.09757
   A36        2.06985   0.00160   0.00000   0.00354   0.00354   2.07339
   A37        2.09692  -0.00290   0.00000  -0.00294  -0.00294   2.09398
   A38        2.09352   0.00112   0.00000   0.00087   0.00087   2.09439
   A39        2.09274   0.00179   0.00000   0.00208   0.00208   2.09482
   A40        2.09560  -0.00326   0.00000  -0.00351  -0.00351   2.09209
   A41        2.09359   0.00183   0.00000   0.00212   0.00211   2.09570
   A42        2.09399   0.00143   0.00000   0.00141   0.00141   2.09539
   A43        2.10504   0.00328   0.00000   0.00427   0.00427   2.10931
   A44        2.07680   0.00098   0.00000   0.00260   0.00260   2.07939
   A45        2.10132  -0.00426   0.00000  -0.00685  -0.00685   2.09447
   A46        2.08571  -0.00090   0.00000  -0.00119  -0.00122   2.08449
   A47        2.12448  -0.00337   0.00000  -0.00399  -0.00400   2.12048
   A48        2.07011   0.00435   0.00000   0.00603   0.00600   2.07610
   A49        1.97751   0.00683   0.00000   0.00849   0.00851   1.98602
   A50        1.92386  -0.00164   0.00000  -0.00288  -0.00287   1.92099
   A51        1.91205  -0.00328   0.00000  -0.00436  -0.00437   1.90768
   A52        1.93048  -0.00336   0.00000  -0.00454  -0.00454   1.92594
   A53        1.89555  -0.00106   0.00000  -0.00118  -0.00117   1.89438
   A54        1.81726   0.00204   0.00000   0.00403   0.00402   1.82128
   A55        2.01834   0.00404   0.00000   0.00878   0.00877   2.02710
   A56        1.91467  -0.00458   0.00000  -0.01140  -0.01142   1.90325
   A57        1.89693   0.00009   0.00000   0.00135   0.00134   1.89827
   A58        1.87560   0.00264   0.00000   0.00733   0.00735   1.88295
   A59        1.90376  -0.00266   0.00000  -0.00479  -0.00478   1.89898
   A60        1.84697   0.00016   0.00000  -0.00219  -0.00219   1.84477
    D1        0.01700  -0.00032   0.00000  -0.00582  -0.00582   0.01118
    D2       -3.13145  -0.00018   0.00000  -0.00262  -0.00263  -3.13408
    D3       -3.13470  -0.00034   0.00000  -0.00876  -0.00876   3.13973
    D4        0.00004  -0.00020   0.00000  -0.00556  -0.00557  -0.00553
    D5       -0.03071   0.00051   0.00000   0.00966   0.00964  -0.02107
    D6       -3.08926  -0.00072   0.00000  -0.00280  -0.00278  -3.09204
    D7        3.12141   0.00048   0.00000   0.01268   0.01264   3.13405
    D8        0.06286  -0.00075   0.00000   0.00022   0.00023   0.06309
    D9        2.18433   0.00114   0.00000   0.01219   0.01215   2.19648
   D10        0.06025  -0.00165   0.00000   0.00516   0.00518   0.06543
   D11       -1.95157   0.00059   0.00000   0.01322   0.01321  -1.93836
   D12       -0.96776   0.00115   0.00000   0.00916   0.00912  -0.95864
   D13       -3.09185  -0.00164   0.00000   0.00213   0.00215  -3.08970
   D14        1.17952   0.00061   0.00000   0.01018   0.01018   1.18970
   D15        0.00057   0.00011   0.00000   0.00036   0.00036   0.00093
   D16        3.13688   0.00017   0.00000   0.00250   0.00250   3.13938
   D17       -3.13430  -0.00001   0.00000  -0.00274  -0.00275  -3.13705
   D18        0.00201   0.00006   0.00000  -0.00060  -0.00061   0.00140
   D19       -0.00441   0.00000   0.00000   0.00135   0.00135  -0.00306
   D20        3.13158   0.00020   0.00000   0.00311   0.00312   3.13470
   D21       -3.14072  -0.00006   0.00000  -0.00078  -0.00079  -3.14151
   D22       -0.00473   0.00013   0.00000   0.00098   0.00098  -0.00375
   D23       -0.00978   0.00016   0.00000   0.00257   0.00258  -0.00720
   D24        3.12468   0.00053   0.00000   0.00479   0.00481   3.12948
   D25        3.13742  -0.00003   0.00000   0.00080   0.00080   3.13822
   D26       -0.01131   0.00033   0.00000   0.00302   0.00303  -0.00828
   D27        0.02743  -0.00039   0.00000  -0.00807  -0.00807   0.01936
   D28        3.08857   0.00044   0.00000   0.00353   0.00356   3.09213
   D29       -3.10692  -0.00079   0.00000  -0.01036  -0.01036  -3.11728
   D30       -0.04578   0.00004   0.00000   0.00124   0.00127  -0.04451
   D31        1.50267  -0.00086   0.00000  -0.00227  -0.00227   1.50040
   D32       -0.67128  -0.00024   0.00000  -0.00034  -0.00034  -0.67163
   D33       -2.66082   0.00005   0.00000  -0.00117  -0.00118  -2.66200
   D34       -1.55660  -0.00184   0.00000  -0.01429  -0.01430  -1.57090
   D35        2.55264  -0.00122   0.00000  -0.01236  -0.01237   2.54026
   D36        0.56310  -0.00093   0.00000  -0.01319  -0.01321   0.54989
   D37       -0.47040  -0.00034   0.00000  -0.01056  -0.01059  -0.48099
   D38       -2.61400  -0.00127   0.00000  -0.01490  -0.01490  -2.62890
   D39        1.67442  -0.00149   0.00000  -0.01374  -0.01373   1.66070
   D40        1.69987   0.00001   0.00000  -0.01154  -0.01157   1.68830
   D41       -0.44373  -0.00093   0.00000  -0.01588  -0.01588  -0.45961
   D42       -2.43849  -0.00115   0.00000  -0.01471  -0.01470  -2.45319
   D43       -2.59938   0.00007   0.00000  -0.00978  -0.00981  -2.60918
   D44        1.54021  -0.00086   0.00000  -0.01412  -0.01412   1.52609
   D45       -0.45455  -0.00109   0.00000  -0.01295  -0.01294  -0.46749
   D46        2.18424   0.00114   0.00000   0.01221   0.01217   2.19641
   D47       -0.96769   0.00115   0.00000   0.00913   0.00910  -0.95859
   D48       -1.95168   0.00060   0.00000   0.01324   0.01323  -1.93845
   D49        1.17958   0.00061   0.00000   0.01017   0.01016   1.18974
   D50        0.06020  -0.00165   0.00000   0.00517   0.00519   0.06539
   D51       -3.09172  -0.00164   0.00000   0.00210   0.00212  -3.08960
   D52       -3.13478  -0.00034   0.00000  -0.00874  -0.00873   3.13968
   D53        0.00015  -0.00020   0.00000  -0.00558  -0.00559  -0.00544
   D54        0.01676  -0.00032   0.00000  -0.00576  -0.00575   0.01101
   D55       -3.13149  -0.00018   0.00000  -0.00260  -0.00261  -3.13410
   D56        3.12146   0.00048   0.00000   0.01266   0.01263   3.13409
   D57        0.06265  -0.00074   0.00000   0.00027   0.00028   0.06293
   D58       -0.03050   0.00051   0.00000   0.00960   0.00958  -0.02091
   D59       -3.08931  -0.00071   0.00000  -0.00279  -0.00277  -3.09207
   D60        0.00073   0.00010   0.00000   0.00032   0.00031   0.00104
   D61        3.13687   0.00017   0.00000   0.00249   0.00249   3.13936
   D62       -3.13433  -0.00001   0.00000  -0.00274  -0.00275  -3.13708
   D63        0.00181   0.00006   0.00000  -0.00056  -0.00057   0.00124
   D64       -0.00447   0.00000   0.00000   0.00136   0.00136  -0.00311
   D65        3.13149   0.00020   0.00000   0.00314   0.00314   3.13464
   D66       -3.14061  -0.00006   0.00000  -0.00081  -0.00081  -3.14143
   D67       -0.00465   0.00013   0.00000   0.00097   0.00097  -0.00368
   D68       -0.00974   0.00016   0.00000   0.00256   0.00257  -0.00717
   D69        3.12471   0.00053   0.00000   0.00478   0.00480   3.12950
   D70        3.13749  -0.00004   0.00000   0.00079   0.00078   3.13827
   D71       -0.01126   0.00033   0.00000   0.00301   0.00301  -0.00824
   D72        0.02731  -0.00039   0.00000  -0.00804  -0.00805   0.01927
   D73        3.08870   0.00043   0.00000   0.00350   0.00352   3.09223
   D74       -3.10703  -0.00079   0.00000  -0.01033  -0.01034  -3.11736
   D75       -0.04564   0.00004   0.00000   0.00121   0.00124  -0.04440
   D76        1.50281  -0.00086   0.00000  -0.00230  -0.00230   1.50052
   D77       -0.67105  -0.00024   0.00000  -0.00039  -0.00039  -0.67144
   D78       -2.66079   0.00005   0.00000  -0.00119  -0.00119  -2.66198
   D79       -1.55671  -0.00184   0.00000  -0.01426  -0.01426  -1.57097
   D80        2.55262  -0.00122   0.00000  -0.01235  -0.01236   2.54026
   D81        0.56287  -0.00092   0.00000  -0.01314  -0.01316   0.54972
   D82       -0.47043  -0.00033   0.00000  -0.01056  -0.01059  -0.48102
   D83        1.67443  -0.00149   0.00000  -0.01373  -0.01372   1.66071
   D84       -2.61411  -0.00126   0.00000  -0.01487  -0.01488  -2.62899
   D85        1.69983   0.00001   0.00000  -0.01154  -0.01157   1.68826
   D86       -2.43848  -0.00115   0.00000  -0.01471  -0.01470  -2.45319
   D87       -0.44384  -0.00092   0.00000  -0.01586  -0.01586  -0.45970
   D88       -2.59925   0.00007   0.00000  -0.00981  -0.00983  -2.60909
   D89       -0.45438  -0.00109   0.00000  -0.01298  -0.01297  -0.46735
   D90        1.54026  -0.00086   0.00000  -0.01412  -0.01413   1.52613
         Item               Value     Threshold  Converged?
 Maximum Force            0.011137     0.000450     NO 
 RMS     Force            0.003245     0.000300     NO 
 Maximum Displacement     0.138032     0.001800     NO 
 RMS     Displacement     0.031028     0.001200     NO 
 Predicted change in Energy=-2.101184D-03
 GradGradGradGradGradGradGradGradGradGradGradGradGradGradGradGradGradGrad

                          Input orientation:                          
 ---------------------------------------------------------------------
 Center     Atomic      Atomic             Coordinates (Angstroms)
[...]
 Alpha virt. eigenvalues --    2.46890   2.48239   2.48556   2.49328   2.53838
 Alpha virt. eigenvalues --    2.54471   2.55603   2.56667   2.57214   2.58814
 Alpha virt. eigenvalues --    2.59179   2.60100   2.60935   2.63389   2.64867
 Alpha virt. eigenvalues --    2.65431   2.66637   2.67462   2.69854   2.71166
 Alpha virt. eigenvalues --    2.71894   2.73915   2.75892   2.76758   2.79212
 Alpha virt. eigenvalues --    2.79474   2.81197   2.81967   2.84084   2.87026
 Alpha virt. eigenvalues --    2.90628   2.91790   2.94822   2.98647   3.04532
 Alpha virt. eigenvalues --    3.05839   3.07980   3.13138   3.19965   3.24126
 Alpha virt. eigenvalues --    3.24546   3.24557   3.26889   3.27420   3.30942
 Alpha virt. eigenvalues --    3.31126   3.34996   3.36140   3.38264   3.38477
 Alpha virt. eigenvalues --    3.47185   3.47864   3.49379   3.49612   3.52125
 Alpha virt. eigenvalues --    3.52564   3.86060   3.86364   4.08845   4.15043
 Alpha virt. eigenvalues --    4.15570   4.16363   4.18678   4.27324   4.35376
 Alpha virt. eigenvalues --    4.35581   4.45696   4.48714   4.52138   4.55127
 Alpha virt. eigenvalues --    4.71868   4.74091   4.83561   4.89228
          Condensed to atoms (all electrons):
               1          2          3          4          5          6
     1  C    4.756860   0.519649  -0.027655  -0.040154  -0.020086   0.538315
     2  C    0.519649   4.931524   0.515350  -0.030247  -0.059705  -0.019319
     3  C   -0.027655   0.515350   4.830874   0.547104  -0.031373  -0.041569
     4  C   -0.040154  -0.030247   0.547104   4.828552   0.516098  -0.025702
     5  C   -0.020086  -0.059705  -0.031373   0.516098   4.934809   0.515126
     6  C    0.538315  -0.019319  -0.041569  -0.025702   0.515126   4.779646
     7  C   -0.061113   0.008303  -0.000021   0.007190  -0.065864   0.358860
     8  C   -0.006263  -0.000199   0.000042  -0.000138  -0.000249  -0.046328
     9  C    0.007858   0.000105  -0.000013  -0.000035  -0.000915   0.001554
    10  C    0.000105  -0.000018   0.000007   0.000004  -0.000192   0.000608
    11  C   -0.000013   0.000007  -0.000000  -0.000001   0.000007  -0.000002
    12  C   -0.000035   0.000004  -0.000001  -0.000000   0.000001   0.000008
    13  C   -0.000915  -0.000192   0.000007   0.000001   0.000003   0.000036
    14  C    0.001554   0.000608  -0.000002   0.000008   0.000036  -0.003883
    15  C   -0.036801   0.001817  -0.000183   0.000023  -0.000222  -0.007209
    16  C    0.359697  -0.058216   0.007394  -0.000070   0.008311  -0.063053
    17  H   -0.040003   0.360732  -0.044684   0.004756   0.000738   0.005344
    18  H    0.003788  -0.037005   0.363923  -0.041481   0.004388   0.001093
    19  H    0.001108   0.004366  -0.041156   0.363479  -0.036955   0.003685
    20  H    0.004853   0.000755   0.004755  -0.044050   0.361802  -0.041502
    21  H   -0.010314  -0.000033   0.000019  -0.000255   0.004391  -0.028881
    22  H    0.004492  -0.000218   0.000011   0.000138  -0.008072  -0.027489
    23  H    0.000389   0.000005  -0.000000   0.000003  -0.000120   0.004638
    24  H   -0.000314   0.000008  -0.000002  -0.000035   0.002301  -0.003364
    25  H   -0.000005  -0.000000   0.000000   0.000002   0.000004  -0.000016
    26  H   -0.000000   0.000000   0.000000  -0.000000  -0.000000  -0.000000
    27  H   -0.000000  -0.000000  -0.000000   0.000000   0.000000   0.000000
    28  H    0.000150  -0.000000  -0.000000   0.000000   0.000000  -0.000003
    29  H   -0.003411  -0.000133   0.000008  -0.000001   0.000005   0.001578
    30  H    0.003680  -0.000085   0.000002  -0.000000   0.000006   0.000144
    31  H   -0.033596  -0.008291   0.000315   0.000007  -0.000211   0.004749
    32  H   -0.029082  -0.000094  -0.000281   0.000045  -0.000119  -0.004165
               7          8          9         10         11         12
     1  C   -0.061113  -0.006263   0.007858   0.000105  -0.000013  -0.000035
     2  C    0.008303  -0.000199   0.000105  -0.000018   0.000007   0.000004
     3  C   -0.000021   0.000042  -0.000013   0.000007  -0.000000  -0.000001
     4  C    0.007190  -0.000138  -0.000035   0.000004  -0.000001  -0.000000
     5  C   -0.065864  -0.000249  -0.000915  -0.000192   0.000007   0.000001
     6  C    0.358860  -0.046328   0.001554   0.000608  -0.000002   0.000008
     7  C    5.102150   0.313586  -0.036801   0.001817  -0.000183   0.000023
     8  C    0.313586   5.086178   0.359696  -0.058216   0.007394  -0.000070
     9  C   -0.036801   0.359696   4.756860   0.519649  -0.027655  -0.040154
    10  C    0.001817  -0.058216   0.519649   4.931524   0.515350  -0.030247
    11  C   -0.000183   0.007394  -0.027655   0.515350   4.830874   0.547104
    12  C    0.000023  -0.000070  -0.040154  -0.030247   0.547104   4.828552
    13  C   -0.000222   0.008311  -0.020085  -0.059705  -0.031373   0.516098
    14  C   -0.007209  -0.063053   0.538315  -0.019318  -0.041569  -0.025702
    15  C    0.001720  -0.014405  -0.061113   0.008303  -0.000021   0.007190
    16  C   -0.014405   0.001486  -0.006263  -0.000199   0.000042  -0.000138
    17  H   -0.000176  -0.000000  -0.000005  -0.000000   0.000000   0.000002
    18  H    0.000010   0.000000  -0.000000   0.000000   0.000000  -0.000000
    19  H   -0.000193   0.000002  -0.000000  -0.000000  -0.000000   0.000000
    20  H   -0.010247   0.000149   0.000150  -0.000000  -0.000000   0.000000
    21  H    0.368917  -0.036000  -0.003411  -0.000133   0.000008  -0.000001
    22  H    0.364347  -0.031437   0.003680  -0.000085   0.000002  -0.000000
    23  H   -0.034984   0.358837  -0.029082  -0.000094  -0.000281   0.000045
    24  H   -0.032101   0.370650  -0.033597  -0.008291   0.000315   0.000007
    25  H    0.000231  -0.012205  -0.040003   0.360732  -0.044684   0.004756
    26  H    0.000002  -0.000183   0.003788  -0.037005   0.363923  -0.041481
    27  H   -0.000000   0.000009   0.001108   0.004366  -0.041156   0.363479
    28  H    0.000003  -0.000172   0.004853   0.000755   0.004755  -0.044050
    29  H   -0.004606   0.004425  -0.010314  -0.000033   0.000019  -0.000255
    30  H    0.000003   0.000089   0.004492  -0.000218   0.000011   0.000138
    31  H    0.000174  -0.000003  -0.000314   0.000008  -0.000002  -0.000035
    32  H    0.000395  -0.000330   0.000389   0.000005  -0.000000   0.000003
              13         14         15         16         17         18
     1  C   -0.000915   0.001554  -0.036801   0.359697  -0.040003   0.003788
     2  C   -0.000192   0.000608   0.001817  -0.058216   0.360732  -0.037005
     3  C    0.000007  -0.000002  -0.000183   0.007394  -0.044684   0.363923
     4  C    0.000001   0.000008   0.000023  -0.000070   0.004756  -0.041481
     5  C    0.000003   0.000036  -0.000222   0.008311   0.000738   0.004388
     6  C    0.000036  -0.003883  -0.007209  -0.063053   0.005344   0.001093
     7  C   -0.000222  -0.007209   0.001720  -0.014405  -0.000176   0.000010
     8  C    0.008311  -0.063053  -0.014405   0.001486  -0.000000   0.000000
     9  C   -0.020085   0.538315  -0.061113  -0.006263  -0.000005  -0.000000
    10  C   -0.059705  -0.019318   0.008303  -0.000199  -0.000000   0.000000
    11  C   -0.031373  -0.041569  -0.000021   0.000042   0.000000   0.000000
    12  C    0.516098  -0.025702   0.007190  -0.000138   0.000002  -0.000000
    13  C    4.934808   0.515126  -0.065864  -0.000249   0.000004  -0.000000
    14  C    0.515126   4.779646   0.358860  -0.046328  -0.000016  -0.000000
    15  C   -0.065864   0.358860   5.102150   0.313585   0.000231   0.000002
    16  C   -0.000249  -0.046328   0.313585   5.086178  -0.012205  -0.000183
    17  H    0.000004  -0.000016   0.000231  -0.012205   0.649293  -0.006180
    18  H   -0.000000  -0.000000   0.000002  -0.000183  -0.006180   0.637568
    19  H    0.000000   0.000000  -0.000000   0.000009  -0.000209  -0.005793
    20  H    0.000000  -0.000003   0.000003  -0.000172   0.000020  -0.000211
    21  H    0.000005   0.001578  -0.004606   0.004425  -0.000005  -0.000000
    22  H    0.000006   0.000144   0.000003   0.000089   0.000003  -0.000000
    23  H   -0.000119  -0.004165   0.000395  -0.000330  -0.000000   0.000000
    24  H   -0.000211   0.004749   0.000174  -0.000003   0.000000  -0.000000
    25  H    0.000738   0.005344  -0.000176  -0.000000  -0.000000  -0.000000
    26  H    0.004388   0.001093   0.000010   0.000000  -0.000000  -0.000000
    27  H   -0.036955   0.003685  -0.000193   0.000002  -0.000000   0.000000
    28  H    0.361802  -0.041502  -0.010247   0.000149  -0.000003  -0.000000
    29  H    0.004391  -0.028881   0.368917  -0.036000  -0.000005  -0.000000
    30  H   -0.008072  -0.027489   0.364347  -0.031437  -0.000025  -0.000000
    31  H    0.002301  -0.003364  -0.032100   0.370650   0.007975  -0.000015
    32  H   -0.000120   0.004638  -0.034984   0.358837   0.000402   0.000003
              19         20         21         22         23         24
     1  C    0.001108   0.004853  -0.010314   0.004492   0.000389  -0.000314
     2  C    0.004366   0.000755  -0.000033  -0.000218   0.000005   0.000008
     3  C   -0.041156   0.004755   0.000019   0.000011  -0.000000  -0.000002
     4  C    0.363479  -0.044050  -0.000255   0.000138   0.000003  -0.000035
     5  C   -0.036955   0.361802   0.004391  -0.008072  -0.000120   0.002301
     6  C    0.003685  -0.041502  -0.028881  -0.027489   0.004638  -0.003364
     7  C   -0.000193  -0.010247   0.368917   0.364347  -0.034984  -0.032101
     8  C    0.000002   0.000149  -0.036000  -0.031437   0.358837   0.370650
     9  C   -0.000000   0.000150  -0.003411   0.003680  -0.029082  -0.033597
    10  C   -0.000000  -0.000000  -0.000133  -0.000085  -0.000094  -0.008291
    11  C   -0.000000  -0.000000   0.000008   0.000002  -0.000281   0.000315
    12  C    0.000000   0.000000  -0.000001  -0.000000   0.000045   0.000007
    13  C    0.000000   0.000000   0.000005   0.000006  -0.000119  -0.000211
    14  C    0.000000  -0.000003   0.001578   0.000144  -0.004165   0.004749
    15  C   -0.000000   0.000003  -0.004606   0.000003   0.000395   0.000174
    16  C    0.000009  -0.000172   0.004425   0.000089  -0.000330  -0.000003
    17  H   -0.000209   0.000020  -0.000005   0.000003  -0.000000   0.000000
    18  H   -0.005793  -0.000211  -0.000000  -0.000000   0.000000  -0.000000
    19  H    0.637557  -0.005973   0.000003  -0.000011  -0.000000   0.000000
    20  H   -0.005973   0.650566   0.000144   0.005833  -0.000029   0.000285
    21  H    0.000003   0.000144   0.639491  -0.035465  -0.009628   0.005756
    22  H   -0.000011   0.005833  -0.035465   0.632918   0.001701  -0.010502
    23  H   -0.000000  -0.000029  -0.009628   0.001701   0.635644  -0.035577
    24  H    0.000000   0.000285   0.005756  -0.010502  -0.035577   0.631017
    25  H   -0.000000  -0.000003  -0.000005  -0.000025   0.000402   0.007975
    26  H    0.000000  -0.000000  -0.000000  -0.000000   0.000003  -0.000015
    27  H   -0.000000  -0.000000   0.000000   0.000000  -0.000000  -0.000000
    28  H   -0.000000  -0.000000   0.000001  -0.000000   0.000001   0.000003
    29  H    0.000000   0.000001   0.001125   0.000290   0.002020  -0.000044
    30  H    0.000000  -0.000000   0.000290  -0.000006   0.000023   0.000000
    31  H   -0.000000   0.000003  -0.000044   0.000000  -0.000001   0.000001
    32  H   -0.000000   0.000001   0.002020   0.000023   0.000042  -0.000001
              25         26         27         28         29         30
     1  C   -0.000005  -0.000000  -0.000000   0.000150  -0.003411   0.003680
     2  C   -0.000000   0.000000  -0.000000  -0.000000  -0.000133  -0.000085
     3  C    0.000000   0.000000  -0.000000  -0.000000   0.000008   0.000002
     4  C    0.000002  -0.000000   0.000000   0.000000  -0.000001  -0.000000
     5  C    0.000004  -0.000000   0.000000   0.000000   0.000005   0.000006
     6  C   -0.000016  -0.000000   0.000000  -0.000003   0.001578   0.000144
     7  C    0.000231   0.000002  -0.000000   0.000003  -0.004606   0.000003
     8  C   -0.012205  -0.000183   0.000009  -0.000172   0.004425   0.000089
     9  C   -0.040003   0.003788   0.001108   0.004853  -0.010314   0.004492
    10  C    0.360732  -0.037005   0.004366   0.000755  -0.000033  -0.000218
    11  C   -0.044684   0.363923  -0.041156   0.004755   0.000019   0.000011
    12  C    0.004756  -0.041481   0.363479  -0.044050  -0.000255   0.000138
    13  C    0.000738   0.004388  -0.036955   0.361802   0.004391  -0.008072
    14  C    0.005344   0.001093   0.003685  -0.041502  -0.028881  -0.027489
    15  C   -0.000176   0.000010  -0.000193  -0.010247   0.368917   0.364347
    16  C   -0.000000   0.000000   0.000002   0.000149  -0.036000  -0.031437
    17  H   -0.000000  -0.000000  -0.000000  -0.000003  -0.000005  -0.000025
    18  H   -0.000000  -0.000000   0.000000  -0.000000  -0.000000  -0.000000
    19  H   -0.000000   0.000000  -0.000000  -0.000000   0.000000   0.000000
    20  H   -0.000003  -0.000000  -0.000000  -0.000000   0.000001  -0.000000
    21  H   -0.000005  -0.000000   0.000000   0.000001   0.001125   0.000290
    22  H   -0.000025  -0.000000   0.000000  -0.000000   0.000290  -0.000006
    23  H    0.000402   0.000003  -0.000000   0.000001   0.002020   0.000023
    24  H    0.007975  -0.000015  -0.000000   0.000003  -0.000044   0.000000
    25  H    0.649293  -0.006180  -0.000209   0.000020  -0.000005   0.000003
    26  H   -0.006180   0.637567  -0.005793  -0.000211  -0.000000  -0.000000
    27  H   -0.000209  -0.005793   0.637557  -0.005973   0.000003  -0.000011
    28  H    0.000020  -0.000211  -0.005973   0.650566   0.000144   0.005833
    29  H   -0.000005  -0.000000   0.000003   0.000144   0.639491  -0.035465
    30  H    0.000003  -0.000000  -0.000011   0.005833  -0.035465   0.632918
    31  H    0.000000  -0.000000   0.000000   0.000285   0.005756  -0.010502
    32  H   -0.000000   0.000000  -0.000000  -0.000029  -0.009628   0.001701
              31         32
     1  C   -0.033596  -0.029082
     2  C   -0.008291  -0.000094
     3  C    0.000315  -0.000281
     4  C    0.000007   0.000045
     5  C   -0.000211  -0.000119
     6  C    0.004749  -0.004165
     7  C    0.000174   0.000395
     8  C   -0.000003  -0.000330
     9  C   -0.000314   0.000389
    10  C    0.000008   0.000005
    11  C   -0.000002  -0.000000
    12  C   -0.000035   0.000003
    13  C    0.002301  -0.000120
    14  C   -0.003364   0.004638
    15  C   -0.032100  -0.034984
    16  C    0.370650   0.358837
    17  H    0.007975   0.000402
    18  H   -0.000015   0.000003
    19  H   -0.000000  -0.000000
    20  H    0.000003   0.000001
    21  H   -0.000044   0.002020
    22  H    0.000000   0.000023
    23  H   -0.000001   0.000042
    24  H    0.000001  -0.000001
    25  H    0.000000  -0.000000
    26  H   -0.000000   0.000000
    27  H    0.000000  -0.000000
    28  H    0.000285  -0.000029
    29  H    0.005756  -0.009628
    30  H   -0.010502   0.001701
    31  H    0.631017  -0.035577
    32  H   -0.035577   0.635644
 Mulliken charges:
               1
     1  C    0.107262
     2  C   -0.129479
     3  C   -0.082869
     4  C   -0.085240
     5  C   -0.123941
     6  C    0.097102
     7  C   -0.259606
     8  C   -0.241603
     9  C    0.107262
    10  C   -0.129479
    11  C   -0.082869
    12  C   -0.085240
    13  C   -0.123941
    14  C    0.097102
    15  C   -0.259606
    16  C   -0.241604
    17  H    0.074015
    18  H    0.080094
    19  H    0.080082
    20  H    0.072870
    21  H    0.100608
    22  H    0.099631
    23  H    0.110260
    24  H    0.100815
    25  H    0.074015
    26  H    0.080094
    27  H    0.080082
    28  H    0.072870
    29  H    0.100608
    30  H    0.099631
    31  H    0.100815
    32  H    0.110260
 Sum of Mulliken charges =  -0.00000
 Mulliken charges with hydrogens summed into heavy atoms:
               1
     1  C    0.107262
     2  C   -0.055463
     3  C   -0.002775
     4  C   -0.005158
     5  C   -0.051071
     6  C    0.097102
     7  C   -0.059368
     8  C   -0.030528
     9  C    0.107262
    10  C   -0.055463
    11  C   -0.002775
    12  C   -0.005158
    13  C   -0.051071
    14  C    0.097102
    15  C   -0.059367
    16  C   -0.030528
 Electronic spatial extent (au):  <R**2>=           3193.0523
 Charge=              0.0000 electrons
 Dipole moment (field-independent basis, Debye):
    X=             -0.0000    Y=             -0.0000    Z=              0.5714  Tot=              0.5714
 Quadrupole moment (field-independent basis, Debye-Ang):
   XX=            -96.4100   YY=            -86.5388   ZZ=            -90.5742
   XY=             -1.5830   XZ=             -0.0000   YZ=              0.0000
 Traceless Quadrupole moment (field-independent basis, Debye-Ang):
   XX=             -5.2356   YY=              4.6356   ZZ=              0.6001
   XY=             -1.5830   XZ=             -0.0000   YZ=              0.0000
 Octapole moment (field-independent basis, Debye-Ang**2):
  XXX=              0.0001  YYY=              0.0000  ZZZ=              2.0001  XYY=              0.0000
  XXY=              0.0001  XXZ=            -23.4855  XZZ=             -0.0000  YZZ=             -0.0000
  YYZ=             -2.0503  XYZ=             -1.9097
 Hexadecapole moment (field-independent basis, Debye-Ang**3):
 XXXX=          -2578.9586 YYYY=           -952.0441 ZZZZ=           -919.4369 XXXY=            -30.4348
 XXXZ=             -0.0003 YYYX=            -10.9073 YYYZ=              0.0001 ZZZX=              0.0002
 ZZZY=              0.0001 XXYY=           -553.8261 XXZZ=           -516.6422 YYZZ=           -313.6265
 XXYZ=             -0.0001 YYXZ=             -0.0001 ZZXY=              6.6692
 N-N= 1.045559020354D+03 E-N=-3.524544183138D+03  KE= 6.132821935977D+02
 Unable to Open any file for archive entry.
 1\1\GINC-HPCS06\FOpt\RB3LYP\6-31G(d,p)\C16H16\Z002445\09-Dec-2025\0\\#
  opt=(maxstep=5) B3LYP/6-31G** SCF=(XQC,MaxCycle=200,noincore) Int=(Gr
 id=UltraFine)\\m2g_dcbod_twistboat\\0,1\C,-1.3704306883,0.9531389051,-
 0.0267299254\C,-1.9434872332,1.432126942,1.1590550856\C,-2.7580059237,
 0.6311577843,1.9583422337\C,-3.0131930915,-0.6845471294,1.577645809\C,
 -2.4461968225,-1.1772402661,0.4034754859\C,-1.6265563717,-0.3816597906
 ,-0.4061158124\C,-1.006972829,-0.9762277764,-1.6503012015\C,0.41754986
 33,-1.5735639268,-1.433675286\C,1.3452487467,-0.8834943803,-0.44385363
 9\C,2.0315110181,-1.6756808663,0.4864117862\C,2.9373129362,-1.12725783
 37,1.3933890059\C,3.1716580438,0.2461078803,1.3845157145\C,2.492846325
 6,1.0481520798,0.468629901\C,1.5809595298,0.5077849097,-0.4460622736\C
 ,0.8441208964,1.4267612958,-1.3936615028\C,-0.5405979117,1.9139665515,
 -0.8662273657\H,-1.7469152795,2.4583635561,1.4598855445\H,-3.187726104
 8,1.0340987137,2.8709103214\H,-3.6472384012,-1.3224671644,2.1865900124
 \H,-2.6433260046,-2.2033441216,0.1011890583\H,-0.9839641234,-0.2271163
 078,-2.4462463041\H,-1.6470899274,-1.7834623662,-2.0232108268\H,0.9097
 796559,-1.635011868,-2.4150564762\H,0.3004944408,-2.6090453974,-1.0974
 898739\H,1.8515878135,-2.7479780205,0.4967780529\H,3.4536878109,-1.769
 9411162,2.1005780912\H,3.8756002241,0.6906486108,2.0820954407\H,2.6731
 692397,2.1207514406,0.4567819271\H,0.7265630241,0.939245797,-2.3651214
 28\H,1.4542029016,2.3170955159,-1.5821927659\H,-0.3730978632,2.8098749
 94,-0.2594025903\H,-1.1315938947,2.2486633548,-1.7310261987\\Version=E
 S64L-G16RevC.02\State=1-A\HF=-619.3712361\RMSD=8.597e-09\RMSF=3.230e-0
 5\Dipole=-0.0118807,0.0328697,-0.2220792\Quadrupole=-3.6660301,3.19758
 76,0.4684425,1.6552954,0.4649946,0.3186892\PG=C01 [X(C16H16)]\\@
 The archive entry for this job was punched.


 CONFIDENCE: THAT QUIET ASSURED FEELING YOU HAVE
 JUST BEFORE YOU FALL FLAT ON YOUR FACE.
 Job cpu time:       0 days  0 hours 32 minutes 20.3 seconds.
 Elapsed time:       0 days  0 hours  1 minutes  8.7 seconds.
 File lengths (MBytes):  RWF=     70 Int=      0 D2E=      0 Chk=     10 Scr=      1
 Normal termination of Gaussian 16 at Tue Dec  9 16:04:59 2025.
