 Entering Gaussian System, Link 0=g16
 Input=monomer_twistboat.com
 Output=monomer_twistboat.log
 Initial command:
 /usr/local/gaussian16c02/g16/l1.exe "/scr/Gau-832136.inp" -scrdir="/scr/"
 Entering Link 1 = /usr/local/gaussian16c02/g16/l1.exe PID=    832137.
  
 Copyright (c) 1988-2021, Gaussian, Inc.  All Rights Reserved.
  
 This is part of the Gaussian(R) 16 program.  It is based on
 the Gaussian(R) 09 system (copyright 2009, Gaussian, Inc.),
 the Gaussian(R) 03 system (copyright 2003, Gaussian, Inc.),
 the Gaussian(R) 98 system (copyright 1998, Gaussian, Inc.),
 the Gaussian(R) 94 system (copyright 1995, Gaussian, Inc.),
 the Gaussian 92(TM) system (copyright 1992, Gaussian, Inc.),
 the Gaussian 90(TM) system (copyright 1990, Gaussian, Inc.),
 the Gaussian 88(TM) system (copyright 1988, Gaussian, Inc.),
 the Gaussian 86(TM) system (copyright 1986, Carnegie Mellon
 University), and the Gaussian 82(TM) system (copyright 1983,
 Carnegie Mellon University). Gaussian is a federally registered
 trademark of Gaussian, Inc.
  
 This software contains proprietary and confidential information,
 including trade secrets, belonging to Gaussian, Inc.
  
 This software is provided under written license and may be
 used, copied, transmitted, or stored only in accord with that
 written license.
  
 The following legend is applicable only to US Government
 contracts under FAR:
  
                    RESTRICTED RIGHTS LEGEND
  
 Use, reproduction and disclosure by the US Government is
 subject to restrictions as set forth in subparagraphs (a)
 and (c) of the Commercial Computer Software - Restricted
 Rights clause in FAR 52.227-19.
  
 Gaussian, Inc.
 340 Quinnipiac St., Bldg. 40, Wallingford CT 06492
  
  
 ---------------------------------------------------------------
 Warning -- This program may not be used in any manner that
 competes with the business of Gaussian, Inc. or will provide
 assistance to any competitor of Gaussian, Inc.  The licensee
 of this program is prohibited from giving any competitor of
 Gaussian, Inc. access to this program.  By using this program,
 the user acknowledges that Gaussian, Inc. is engaged in the
 business of creating and licensing software in the field of
 computational chemistry and represents and warrants to the
 licensee that it is not a competitor of Gaussian, Inc. and that
 it will not use this program in any manner prohibited above.
 ---------------------------------------------------------------
  

 Cite this work as:
 Gaussian 16, Revision C.02,
 M. J. Frisch, G. W. Trucks, H. B. Schlegel, G. E. Scuseria, 
 M. A. Robb, J. R. Cheeseman, G. Scalmani, V. Barone, 
 G. A. Petersson, H. Nakatsuji, X. Li, M. Caricato, A. V. Marenich, 
 J. Bloino, B. G. Janesko, R. Gomperts, B. Mennucci, H. P. Hratchian, 
 J. V. Ortiz, A. F. Izmaylov, J. L. Sonnenberg, D. Williams-Young, 
 F. Ding, F. Lipparini, F. Egidi, J. Goings, B. Peng, A. Petrone, 
 T. Henderson, D. Ranasinghe, V. G. Zakrzewski, J. Gao, N. Rega, 
 G. Zheng, W. Liang, M. Hada, M. Ehara, K. Toyota, R. Fukuda, 
 J. Hasegawa, M. Ishida, T. Nakajima, Y. Honda, O. Kitao, H. Nakai, 
 T. Vreven, K. Throssell, J. A. Montgomery, Jr., J. E. Peralta, 
 F. Ogliaro, M. J. Bearpark, J. J. Heyd, E. N. Brothers, K. N. Kudin, 
 V. N. Staroverov, T. A. Keith, R. Kobayashi, J. Normand, 
 K. Raghavachari, A. P. Rendell, J. C. Burant, S. S. Iyengar, 
 J. Tomasi, M. Cossi, J. M. Millam, M. Klene, C. Adamo, R. Cammi, 
 J. W. Ochterski, R. L. Martin, K. Morokuma, O. Farkas, 
 J. B. Foresman, and D. J. Fox, Gaussian, Inc., Wallingford CT, 2019.
 
 ******************************************
 Gaussian 16:  ES64L-G16RevC.02  7-Dec-2021
                 9-Dec-2025 
 ******************************************
 %chk=monomer_twistboat
 %mem=4GB
 %nproc=32
 Will use up to   32 processors via shared memory.
 ----------------------------------------------------------------------
 # opt=(maxstep=5) B3LYP/6-31G** SCF=(XQC,MaxCycle=200,noincore) Int=(G
 rid=UltraFine)
 ----------------------------------------------------------------------
 1/8=5,18=20,19=15,26=4,38=1/1,3;
 2/9=110,12=2,17=6,18=5,40=1/2;
 3/5=1,6=6,7=101,11=2,25=1,30=1,71=1,74=-5,75=-5/1,2,3;
 4//1;
 5/5=4,7=200,8=3,13=1,38=5/2,8;
 6/7=2,8=2,9=2,10=2,28=1/1;
 7//1,2,3,16;
 1/8=5,18=20,19=15,26=4/3(2);
 2/9=110/2;
 99//99;
 2/9=110/2;
 3/5=1,6=6,7=101,11=2,25=1,30=1,71=1,74=-5,75=-5/1,2,3;
 4/5=5,16=3,69=1/1;
 5/5=4,7=200,8=3,13=1,38=5/2,8;
 7//1,2,3,16;
 1/8=5,18=20,19=15,26=4/3(-5);
 2/9=110/2;
 6/7=2,8=2,9=2,10=2,19=2,28=1/1;
 99/9=1/99;
 ---------------------
 m2g_monomer_twistboat
 ---------------------
 Symbolic Z-matrix:
 Charge =  0 Multiplicity = 1
 C                     3.0318    0.6285    0.9265 
 C                     3.5575    0.3958   -0.4784 
 C                     3.014    -1.0151   -0.5493 
 C                     1.4963   -0.8001   -0.2886 
 C                     1.5073    0.3819    0.7505 
 C                     0.7956    1.7202    0.384 
 C                    -0.7151    1.6826    0.0472 
 C                    -1.4955    0.5028    0.662 
 C                    -1.5106   -0.8378   -0.1531 
 C                    -0.7963   -0.8931   -1.5387 
 C                     0.7137   -0.5557   -1.5965 
 C                    -3.0092    0.7964    0.8342 
 C                    -3.5522   -0.6046    1.049 
 C                    -3.0374   -1.1086   -0.2857 
 C                    -3.6389   -0.0582   -1.1851 
 C                    -3.6069    1.0921   -0.5165 
 C                     3.6068   -1.5713    0.7202 
 C                     3.6129   -0.5811    1.6121 
 H                     3.3207    1.5959    1.3908 
 H                     4.6712    0.4372   -0.5387 
 H                     3.1279    1.0735   -1.2479 
 H                     3.2833   -1.5879   -1.4623 
 H                     1.1076   -1.7286    0.185 
 H                     1.0986    0.0242    1.7212 
 H                     1.3212    2.2286   -0.4513 
 H                     0.9199    2.3934    1.2612 
 H                    -0.8699    1.7307   -1.0496 
 H                    -1.156     2.6292    0.4313 
 H                    -1.1044    0.3139    1.6858 
 H                    -1.0945   -1.6466    0.4867 
 H                    -0.9246   -1.9304   -1.9199 
 H                    -1.3097   -0.2394   -2.2746 
 H                     1.1491   -1.1968   -2.3943 
 H                     0.8673    0.4782   -1.9648 
 H                    -3.2649    1.5297    1.6285 
 H                    -3.1025   -1.1286    1.9245 
 H                    -4.665    -0.6352    1.1299 
 H                    -3.3161   -2.1539   -0.5378 
 H                    -4.0849   -0.2102   -2.1621 
 H                    -4.0281    2.0326   -0.8546 
 H                     4.0329   -2.558     0.8669 
 H                     4.047    -0.6263    2.6051 
 

 GradGradGradGradGradGradGradGradGradGradGradGradGradGradGradGradGradGrad
 Berny optimization.
 Initialization pass.
                           ----------------------------
                           !    Initial Parameters    !
                           ! (Angstroms and Degrees)  !
 --------------------------                            --------------------------
 ! Name  Definition              Value          Derivative Info.                !
 --------------------------------------------------------------------------------
 ! R1    R(1,2)                  1.518          estimate D2E/DX2                !
 ! R2    R(1,5)                  1.5543         estimate D2E/DX2                !
 ! R3    R(1,18)                 1.5069         estimate D2E/DX2                !
 ! R4    R(1,19)                 1.1113         estimate D2E/DX2                !
 ! R5    R(2,3)                  1.5136         estimate D2E/DX2                !
 ! R6    R(2,20)                 1.1161         estimate D2E/DX2                !
 ! R7    R(2,21)                 1.1117         estimate D2E/DX2                !
 ! R8    R(3,4)                  1.5549         estimate D2E/DX2                !
 ! R9    R(3,17)                 1.5074         estimate D2E/DX2                !
 ! R10   R(3,22)                 1.1109         estimate D2E/DX2                !
 ! R11   R(4,5)                  1.5738         estimate D2E/DX2                !
 ! R12   R(4,11)                 1.5436         estimate D2E/DX2                !
 ! R13   R(4,23)                 1.1124         estimate D2E/DX2                !
 ! R14   R(5,6)                  1.5595         estimate D2E/DX2                !
 ! R15   R(5,24)                 1.1123         estimate D2E/DX2                !
 ! R16   R(6,7)                  1.5482         estimate D2E/DX2                !
 ! R17   R(6,25)                 1.1102         estimate D2E/DX2                !
 ! R18   R(6,26)                 1.1127         estimate D2E/DX2                !
 ! R19   R(7,8)                  1.5424         estimate D2E/DX2                !
 ! R20   R(7,27)                 1.1087         estimate D2E/DX2                !
 ! R21   R(7,28)                 1.1126         estimate D2E/DX2                !
 ! R22   R(8,9)                  1.569          estimate D2E/DX2                !
 ! R23   R(8,12)                 1.5515         estimate D2E/DX2                !
 ! R24   R(8,29)                 1.1121         estimate D2E/DX2                !
 ! R25   R(9,10)                 1.5599         estimate D2E/DX2                !
 ! R26   R(9,14)                 1.5563         estimate D2E/DX2                !
 ! R27   R(9,30)                 1.112          estimate D2E/DX2                !
 ! R28   R(10,11)                1.5483         estimate D2E/DX2                !
 ! R29   R(10,31)                1.1125         estimate D2E/DX2                !
 ! R30   R(10,32)                1.1102         estimate D2E/DX2                !
 ! R31   R(11,33)                1.1122         estimate D2E/DX2                !
 ! R32   R(11,34)                1.1082         estimate D2E/DX2                !
 ! R33   R(12,13)                1.5178         estimate D2E/DX2                !
 ! R34   R(12,16)                1.5063         estimate D2E/DX2                !
 ! R35   R(12,35)                1.1109         estimate D2E/DX2                !
 ! R36   R(13,14)                1.5167         estimate D2E/DX2                !
 ! R37   R(13,36)                1.115          estimate D2E/DX2                !
 ! R38   R(13,37)                1.1162         estimate D2E/DX2                !
 ! R39   R(14,15)                1.508          estimate D2E/DX2                !
 ! R40   R(14,38)                1.1108         estimate D2E/DX2                !
 ! R41   R(15,16)                1.3309         estimate D2E/DX2                !
 ! R42   R(15,39)                1.0847         estimate D2E/DX2                !
 ! R43   R(16,40)                1.0846         estimate D2E/DX2                !
 ! R44   R(17,18)                1.3327         estimate D2E/DX2                !
 ! R45   R(17,41)                1.0847         estimate D2E/DX2                !
 ! R46   R(18,42)                1.0847         estimate D2E/DX2                !
 ! A1    A(2,1,5)              102.1548         estimate D2E/DX2                !
 ! A2    A(2,1,18)              99.4669         estimate D2E/DX2                !
 ! A3    A(2,1,19)             115.4744         estimate D2E/DX2                !
 ! A4    A(5,1,18)             107.601          estimate D2E/DX2                !
 ! A5    A(5,1,19)             116.1304         estimate D2E/DX2                !
 ! A6    A(18,1,19)            114.1065         estimate D2E/DX2                !
 ! A7    A(1,2,3)               93.5484         estimate D2E/DX2                !
 ! A8    A(1,2,20)             112.9475         estimate D2E/DX2                !
 ! A9    A(1,2,21)             114.414          estimate D2E/DX2                !
 ! A10   A(3,2,20)             112.976          estimate D2E/DX2                !
 ! A11   A(3,2,21)             113.3933         estimate D2E/DX2                !
 ! A12   A(20,2,21)            109.0009         estimate D2E/DX2                !
 ! A13   A(2,3,4)              102.3419         estimate D2E/DX2                !
 ! A14   A(2,3,17)              99.3971         estimate D2E/DX2                !
 ! A15   A(2,3,22)             115.5984         estimate D2E/DX2                !
 ! A16   A(4,3,17)             107.0776         estimate D2E/DX2                !
 ! A17   A(4,3,22)             116.4682         estimate D2E/DX2                !
 ! A18   A(17,3,22)            113.9874         estimate D2E/DX2                !
 ! A19   A(3,4,5)              101.9891         estimate D2E/DX2                !
 ! A20   A(3,4,11)             112.0057         estimate D2E/DX2                !
 ! A21   A(3,4,23)             107.2795         estimate D2E/DX2                !
 ! A22   A(5,4,11)             116.362          estimate D2E/DX2                !
 ! A23   A(5,4,23)             110.378          estimate D2E/DX2                !
 ! A24   A(11,4,23)            108.4044         estimate D2E/DX2                !
 ! A25   A(1,5,4)              101.582          estimate D2E/DX2                !
 ! A26   A(1,5,6)              109.76           estimate D2E/DX2                !
 ! A27   A(1,5,24)             108.2153         estimate D2E/DX2                !
 ! A28   A(4,5,6)              119.0889         estimate D2E/DX2                !
 ! A29   A(4,5,24)             109.3956         estimate D2E/DX2                !
 ! A30   A(6,5,24)             108.2634         estimate D2E/DX2                !
 ! A31   A(5,6,7)              118.3981         estimate D2E/DX2                !
 ! A32   A(5,6,25)             110.7181         estimate D2E/DX2                !
 ! A33   A(5,6,26)             106.4365         estimate D2E/DX2                !
 ! A34   A(7,6,25)             108.0236         estimate D2E/DX2                !
 ! A35   A(7,6,26)             107.1687         estimate D2E/DX2                !
 ! A36   A(25,6,26)            105.2605         estimate D2E/DX2                !
 ! A37   A(6,7,8)              115.1866         estimate D2E/DX2                !
 ! A38   A(6,7,27)             110.5106         estimate D2E/DX2                !
 ! A39   A(6,7,28)             106.9116         estimate D2E/DX2                !
 ! A40   A(8,7,27)             110.9076         estimate D2E/DX2                !
 ! A41   A(8,7,28)             108.2201         estimate D2E/DX2                !
 ! A42   A(27,7,28)            104.4342         estimate D2E/DX2                !
 ! A43   A(7,8,9)              116.8309         estimate D2E/DX2                !
 ! A44   A(7,8,12)             113.1497         estimate D2E/DX2                !
 ! A45   A(7,8,29)             108.5989         estimate D2E/DX2                !
 ! A46   A(9,8,12)             102.1198         estimate D2E/DX2                !
 ! A47   A(9,8,29)             109.6636         estimate D2E/DX2                !
 ! A48   A(12,8,29)            105.8471         estimate D2E/DX2                !
 ! A49   A(8,9,10)             119.1661         estimate D2E/DX2                !
 ! A50   A(8,9,14)             101.6759         estimate D2E/DX2                !
 ! A51   A(8,9,30)             108.5989         estimate D2E/DX2                !
 ! A52   A(10,9,14)            111.5551         estimate D2E/DX2                !
 ! A53   A(10,9,30)            108.2964         estimate D2E/DX2                !
 ! A54   A(14,9,30)            106.8311         estimate D2E/DX2                !
 ! A55   A(9,10,11)            118.166          estimate D2E/DX2                !
 ! A56   A(9,10,31)            106.5352         estimate D2E/DX2                !
 ! A57   A(9,10,32)            110.8657         estimate D2E/DX2                !
 ! A58   A(11,10,31)           107.6289         estimate D2E/DX2                !
 ! A59   A(11,10,32)           107.3346         estimate D2E/DX2                !
 ! A60   A(31,10,32)           105.578          estimate D2E/DX2                !
 ! A61   A(4,11,10)            115.3603         estimate D2E/DX2                !
 ! A62   A(4,11,33)            108.5436         estimate D2E/DX2                !
 ! A63   A(4,11,34)            111.04           estimate D2E/DX2                !
 ! A64   A(10,11,33)           106.4361         estimate D2E/DX2                !
 ! A65   A(10,11,34)           110.5407         estimate D2E/DX2                !
 ! A66   A(33,11,34)           104.1883         estimate D2E/DX2                !
 ! A67   A(8,12,13)            100.9568         estimate D2E/DX2                !
 ! A68   A(8,12,16)            108.9503         estimate D2E/DX2                !
 ! A69   A(8,12,35)            115.3947         estimate D2E/DX2                !
 ! A70   A(13,12,16)            99.5634         estimate D2E/DX2                !
 ! A71   A(13,12,35)           115.1995         estimate D2E/DX2                !
 ! A72   A(16,12,35)           114.8492         estimate D2E/DX2                !
 ! A73   A(12,13,14)            93.4834         estimate D2E/DX2                !
 ! A74   A(12,13,36)           113.616          estimate D2E/DX2                !
 ! A75   A(12,13,37)           113.0937         estimate D2E/DX2                !
 ! A76   A(14,13,36)           113.4469         estimate D2E/DX2                !
 ! A77   A(14,13,37)           113.1455         estimate D2E/DX2                !
 ! A78   A(36,13,37)           109.4083         estimate D2E/DX2                !
 ! A79   A(9,14,13)            101.5478         estimate D2E/DX2                !
 ! A80   A(9,14,15)            108.7191         estimate D2E/DX2                !
 ! A81   A(9,14,38)            115.4185         estimate D2E/DX2                !
 ! A82   A(13,14,15)            99.0907         estimate D2E/DX2                !
 ! A83   A(13,14,38)           115.2936         estimate D2E/DX2                !
 ! A84   A(15,14,38)           114.8372         estimate D2E/DX2                !
 ! A85   A(14,15,16)           107.0271         estimate D2E/DX2                !
 ! A86   A(14,15,39)           127.1285         estimate D2E/DX2                !
 ! A87   A(16,15,39)           125.6974         estimate D2E/DX2                !
 ! A88   A(12,16,15)           106.8782         estimate D2E/DX2                !
 ! A89   A(12,16,40)           127.1466         estimate D2E/DX2                !
 ! A90   A(15,16,40)           125.7017         estimate D2E/DX2                !
 ! A91   A(3,17,18)            106.9337         estimate D2E/DX2                !
 ! A92   A(3,17,41)            127.1559         estimate D2E/DX2                !
 ! A93   A(18,17,41)           125.701          estimate D2E/DX2                !
 ! A94   A(1,18,17)            106.8675         estimate D2E/DX2                !
 ! A95   A(1,18,42)            127.1773         estimate D2E/DX2                !
 ! A96   A(17,18,42)           125.7011         estimate D2E/DX2                !
 ! D1    D(5,1,2,3)            -57.9057         estimate D2E/DX2                !
 ! D2    D(5,1,2,20)          -174.711          estimate D2E/DX2                !
 ! D3    D(5,1,2,21)            59.8055         estimate D2E/DX2                !
 ! D4    D(18,1,2,3)            52.5515         estimate D2E/DX2                !
 ! D5    D(18,1,2,20)          -64.2538         estimate D2E/DX2                !
 ! D6    D(18,1,2,21)          170.2626         estimate D2E/DX2                !
 ! D7    D(19,1,2,3)           175.1065         estimate D2E/DX2                !
 ! D8    D(19,1,2,20)           58.3012         estimate D2E/DX2                !
 ! D9    D(19,1,2,21)          -67.1824         estimate D2E/DX2                !
 ! D10   D(2,1,5,4)             36.8808         estimate D2E/DX2                !
 ! D11   D(2,1,5,6)            -90.0568         estimate D2E/DX2                !
 ! D12   D(2,1,5,24)           151.9882         estimate D2E/DX2                !
 ! D13   D(18,1,5,4)           -67.2916         estimate D2E/DX2                !
 ! D14   D(18,1,5,6)           165.7708         estimate D2E/DX2                !
 ! D15   D(18,1,5,24)           47.8159         estimate D2E/DX2                !
 ! D16   D(19,1,5,4)           163.4443         estimate D2E/DX2                !
 ! D17   D(19,1,5,6)            36.5067         estimate D2E/DX2                !
 ! D18   D(19,1,5,24)          -81.4482         estimate D2E/DX2                !
 ! D19   D(2,1,18,17)          -34.3375         estimate D2E/DX2                !
 ! D20   D(2,1,18,42)          140.097          estimate D2E/DX2                !
 ! D21   D(5,1,18,17)           71.7345         estimate D2E/DX2                !
 ! D22   D(5,1,18,42)         -113.8311         estimate D2E/DX2                !
 ! D23   D(19,1,18,17)        -157.8638         estimate D2E/DX2                !
 ! D24   D(19,1,18,42)          16.5706         estimate D2E/DX2                !
 ! D25   D(1,2,3,4)             57.2372         estimate D2E/DX2                !
 ! D26   D(1,2,3,17)           -52.6953         estimate D2E/DX2                !
 ! D27   D(1,2,3,22)          -175.1208         estimate D2E/DX2                !
 ! D28   D(20,2,3,4)           174.0187         estimate D2E/DX2                !
 ! D29   D(20,2,3,17)           64.0862         estimate D2E/DX2                !
 ! D30   D(20,2,3,22)          -58.3393         estimate D2E/DX2                !
 ! D31   D(21,2,3,4)           -61.32           estimate D2E/DX2                !
 ! D32   D(21,2,3,17)         -171.2525         estimate D2E/DX2                !
 ! D33   D(21,2,3,22)           66.322          estimate D2E/DX2                !
 ! D34   D(2,3,4,5)            -35.5059         estimate D2E/DX2                !
 ! D35   D(2,3,4,11)            89.6242         estimate D2E/DX2                !
 ! D36   D(2,3,4,23)          -151.5372         estimate D2E/DX2                !
 ! D37   D(17,3,4,5)            68.5026         estimate D2E/DX2                !
 ! D38   D(17,3,4,11)         -166.3673         estimate D2E/DX2                !
 ! D39   D(17,3,4,23)          -47.5287         estimate D2E/DX2                !
 ! D40   D(22,3,4,5)          -162.5916         estimate D2E/DX2                !
 ! D41   D(22,3,4,11)          -37.4614         estimate D2E/DX2                !
 ! D42   D(22,3,4,23)           81.3772         estimate D2E/DX2                !
 ! D43   D(2,3,17,18)           34.9977         estimate D2E/DX2                !
 ! D44   D(2,3,17,41)         -139.9487         estimate D2E/DX2                !
 ! D45   D(4,3,17,18)          -71.1126         estimate D2E/DX2                !
 ! D46   D(4,3,17,41)          113.941          estimate D2E/DX2                !
 ! D47   D(22,3,17,18)         158.5692         estimate D2E/DX2                !
 ! D48   D(22,3,17,41)         -16.3773         estimate D2E/DX2                !
 ! D49   D(3,4,5,1)             -0.8761         estimate D2E/DX2                !
 ! D50   D(3,4,5,6)            119.7171         estimate D2E/DX2                !
 ! D51   D(3,4,5,24)          -115.1084         estimate D2E/DX2                !
 ! D52   D(11,4,5,1)          -123.0677         estimate D2E/DX2                !
 ! D53   D(11,4,5,6)            -2.4745         estimate D2E/DX2                !
 ! D54   D(11,4,5,24)          122.6999         estimate D2E/DX2                !
 ! D55   D(23,4,5,1)           112.878          estimate D2E/DX2                !
 ! D56   D(23,4,5,6)          -126.5288         estimate D2E/DX2                !
 ! D57   D(23,4,5,24)           -1.3543         estimate D2E/DX2                !
 ! D58   D(3,4,11,10)          156.3752         estimate D2E/DX2                !
 ! D59   D(3,4,11,33)           37.0831         estimate D2E/DX2                !
 ! D60   D(3,4,11,34)          -76.8727         estimate D2E/DX2                !
 ! D61   D(5,4,11,10)          -86.8595         estimate D2E/DX2                !
 ! D62   D(5,4,11,33)          153.8484         estimate D2E/DX2                !
 ! D63   D(5,4,11,34)           39.8926         estimate D2E/DX2                !
 ! D64   D(23,4,11,10)          38.2034         estimate D2E/DX2                !
 ! D65   D(23,4,11,33)         -81.0887         estimate D2E/DX2                !
 ! D66   D(23,4,11,34)         164.9555         estimate D2E/DX2                !
 ! D67   D(1,5,6,7)            175.0107         estimate D2E/DX2                !
 ! D68   D(1,5,6,25)            49.5219         estimate D2E/DX2                !
 ! D69   D(1,5,6,26)           -64.3679         estimate D2E/DX2                !
 ! D70   D(4,5,6,7)             58.6526         estimate D2E/DX2                !
 ! D71   D(4,5,6,25)           -66.8363         estimate D2E/DX2                !
 ! D72   D(4,5,6,26)           179.274          estimate D2E/DX2                !
 ! D73   D(24,5,6,7)           -67.0642         estimate D2E/DX2                !
 ! D74   D(24,5,6,25)          167.4469         estimate D2E/DX2                !
 ! D75   D(24,5,6,26)           53.5572         estimate D2E/DX2                !
 ! D76   D(5,6,7,8)             24.9729         estimate D2E/DX2                !
 ! D77   D(5,6,7,27)          -101.6807         estimate D2E/DX2                !
 ! D78   D(5,6,7,28)           145.2458         estimate D2E/DX2                !
 ! D79   D(25,6,7,8)           151.7592         estimate D2E/DX2                !
 ! D80   D(25,6,7,27)           25.1056         estimate D2E/DX2                !
 ! D81   D(25,6,7,28)          -87.9678         estimate D2E/DX2                !
 ! D82   D(26,6,7,8)           -95.2722         estimate D2E/DX2                !
 ! D83   D(26,6,7,27)          138.0742         estimate D2E/DX2                !
 ! D84   D(26,6,7,28)           25.0008         estimate D2E/DX2                !
 ! D85   D(6,7,8,9)            -86.5258         estimate D2E/DX2                !
 ! D86   D(6,7,8,12)           155.2997         estimate D2E/DX2                !
 ! D87   D(6,7,8,29)            38.0911         estimate D2E/DX2                !
 ! D88   D(27,7,8,9)            39.9253         estimate D2E/DX2                !
 ! D89   D(27,7,8,12)          -78.2492         estimate D2E/DX2                !
 ! D90   D(27,7,8,29)          164.5423         estimate D2E/DX2                !
 ! D91   D(28,7,8,9)           153.9212         estimate D2E/DX2                !
 ! D92   D(28,7,8,12)           35.7467         estimate D2E/DX2                !
 ! D93   D(28,7,8,29)          -81.4618         estimate D2E/DX2                !
 ! D94   D(7,8,9,10)            -2.2135         estimate D2E/DX2                !
 ! D95   D(7,8,9,14)          -125.2358         estimate D2E/DX2                !
 ! D96   D(7,8,9,30)           122.3373         estimate D2E/DX2                !
 ! D97   D(12,8,9,10)          121.789          estimate D2E/DX2                !
 ! D98   D(12,8,9,14)           -1.2333         estimate D2E/DX2                !
 ! D99   D(12,8,9,30)         -113.6601         estimate D2E/DX2                !
 ! D100  D(29,8,9,10)         -126.29           estimate D2E/DX2                !
 ! D101  D(29,8,9,14)          110.6877         estimate D2E/DX2                !
 ! D102  D(29,8,9,30)           -1.7391         estimate D2E/DX2                !
 ! D103  D(7,8,12,13)          164.2311         estimate D2E/DX2                !
 ! D104  D(7,8,12,16)           60.0259         estimate D2E/DX2                !
 ! D105  D(7,8,12,35)          -70.8813         estimate D2E/DX2                !
 ! D106  D(9,8,12,13)           37.7974         estimate D2E/DX2                !
 ! D107  D(9,8,12,16)          -66.4078         estimate D2E/DX2                !
 ! D108  D(9,8,12,35)          162.685          estimate D2E/DX2                !
 ! D109  D(29,8,12,13)         -76.9565         estimate D2E/DX2                !
 ! D110  D(29,8,12,16)         178.8383         estimate D2E/DX2                !
 ! D111  D(29,8,12,35)          47.9311         estimate D2E/DX2                !
 ! D112  D(8,9,10,11)           58.1503         estimate D2E/DX2                !
 ! D113  D(8,9,10,31)          179.3023         estimate D2E/DX2                !
 ! D114  D(8,9,10,32)          -66.3067         estimate D2E/DX2                !
 ! D115  D(14,9,10,11)         176.162          estimate D2E/DX2                !
 ! D116  D(14,9,10,31)         -62.686          estimate D2E/DX2                !
 ! D117  D(14,9,10,32)          51.705          estimate D2E/DX2                !
 ! D118  D(30,9,10,11)         -66.5467         estimate D2E/DX2                !
 ! D119  D(30,9,10,31)          54.6053         estimate D2E/DX2                !
 ! D120  D(30,9,10,32)         168.9963         estimate D2E/DX2                !
 ! D121  D(8,9,14,13)          -35.7886         estimate D2E/DX2                !
 ! D122  D(8,9,14,15)           68.0687         estimate D2E/DX2                !
 ! D123  D(8,9,14,38)         -161.2337         estimate D2E/DX2                !
 ! D124  D(10,9,14,13)        -163.8636         estimate D2E/DX2                !
 ! D125  D(10,9,14,15)         -60.0063         estimate D2E/DX2                !
 ! D126  D(10,9,14,38)          70.6913         estimate D2E/DX2                !
 ! D127  D(30,9,14,13)          77.9629         estimate D2E/DX2                !
 ! D128  D(30,9,14,15)        -178.1799         estimate D2E/DX2                !
 ! D129  D(30,9,14,38)         -47.4822         estimate D2E/DX2                !
 ! D130  D(9,10,11,4)           25.831          estimate D2E/DX2                !
 ! D131  D(9,10,11,33)         146.2795         estimate D2E/DX2                !
 ! D132  D(9,10,11,34)        -101.1737         estimate D2E/DX2                !
 ! D133  D(31,10,11,4)         -94.7587         estimate D2E/DX2                !
 ! D134  D(31,10,11,33)         25.6898         estimate D2E/DX2                !
 ! D135  D(31,10,11,34)        138.2365         estimate D2E/DX2                !
 ! D136  D(32,10,11,4)         152.0141         estimate D2E/DX2                !
 ! D137  D(32,10,11,33)        -87.5374         estimate D2E/DX2                !
 ! D138  D(32,10,11,34)         25.0094         estimate D2E/DX2                !
 ! D139  D(8,12,13,14)         -59.1001         estimate D2E/DX2                !
 ! D140  D(8,12,13,36)          58.3959         estimate D2E/DX2                !
 ! D141  D(8,12,13,37)        -176.1043         estimate D2E/DX2                !
 ! D142  D(16,12,13,14)         52.4958         estimate D2E/DX2                !
 ! D143  D(16,12,13,36)        169.9917         estimate D2E/DX2                !
 ! D144  D(16,12,13,37)        -64.5085         estimate D2E/DX2                !
 ! D145  D(35,12,13,14)        175.8803         estimate D2E/DX2                !
 ! D146  D(35,12,13,36)        -66.6238         estimate D2E/DX2                !
 ! D147  D(35,12,13,37)         58.8761         estimate D2E/DX2                !
 ! D148  D(8,12,16,15)          71.3018         estimate D2E/DX2                !
 ! D149  D(8,12,16,40)        -114.4722         estimate D2E/DX2                !
 ! D150  D(13,12,16,15)        -33.8658         estimate D2E/DX2                !
 ! D151  D(13,12,16,40)        140.3602         estimate D2E/DX2                !
 ! D152  D(35,12,16,15)       -157.4973         estimate D2E/DX2                !
 ! D153  D(35,12,16,40)         16.7287         estimate D2E/DX2                !
 ! D154  D(12,13,14,9)          58.4512         estimate D2E/DX2                !
 ! D155  D(12,13,14,15)        -52.9207         estimate D2E/DX2                !
 ! D156  D(12,13,14,38)       -176.0207         estimate D2E/DX2                !
 ! D157  D(36,13,14,9)         -59.1858         estimate D2E/DX2                !
 ! D158  D(36,13,14,15)       -170.5577         estimate D2E/DX2                !
 ! D159  D(36,13,14,38)         66.3423         estimate D2E/DX2                !
 ! D160  D(37,13,14,9)         175.412          estimate D2E/DX2                !
 ! D161  D(37,13,14,15)         64.0402         estimate D2E/DX2                !
 ! D162  D(37,13,14,38)        -59.0599         estimate D2E/DX2                !
 ! D163  D(9,14,15,16)         -69.9304         estimate D2E/DX2                !
 ! D164  D(9,14,15,39)         114.3051         estimate D2E/DX2                !
 ! D165  D(13,14,15,16)         35.6312         estimate D2E/DX2                !
 ! D166  D(13,14,15,39)       -140.1333         estimate D2E/DX2                !
 ! D167  D(38,14,15,16)        159.0567         estimate D2E/DX2                !
 ! D168  D(38,14,15,39)        -16.7078         estimate D2E/DX2                !
 ! D169  D(14,15,16,12)         -1.082          estimate D2E/DX2                !
 ! D170  D(14,15,16,40)       -175.4148         estimate D2E/DX2                !
 ! D171  D(39,15,16,12)        174.7599         estimate D2E/DX2                !
 ! D172  D(39,15,16,40)          0.4271         estimate D2E/DX2                !
 ! D173  D(3,17,18,1)           -0.3347         estimate D2E/DX2                !
 ! D174  D(3,17,18,42)        -174.8744         estimate D2E/DX2                !
 ! D175  D(41,17,18,1)         174.7058         estimate D2E/DX2                !
 ! D176  D(41,17,18,42)          0.1661         estimate D2E/DX2                !
 --------------------------------------------------------------------------------
 Trust Radius=5.00D-02 FncErr=1.00D-07 GrdErr=1.00D-06 EigMax=2.50D+02 EigMin=1.00D-04
 Number of steps in this run=    252 maximum allowed number of steps=    252.
 GradGradGradGradGradGradGradGradGradGradGradGradGradGradGradGradGradGrad

                          Input orientation:                          
 ---------------------------------------------------------------------
 Center     Atomic      Atomic             Coordinates (Angstroms)
 Number     Number       Type             X           Y           Z
 ---------------------------------------------------------------------
      1          6           0        3.031800    0.628500    0.926500
      2          6           0        3.557500    0.395800   -0.478400
      3          6           0        3.014000   -1.015100   -0.549300
      4          6           0        1.496300   -0.800100   -0.288600
      5          6           0        1.507300    0.381900    0.750500
      6          6           0        0.795600    1.720200    0.384000
      7          6           0       -0.715100    1.682600    0.047200
      8          6           0       -1.495500    0.502800    0.662000
      9          6           0       -1.510600   -0.837800   -0.153100
     10          6           0       -0.796300   -0.893100   -1.538700
     11          6           0        0.713700   -0.555700   -1.596500
     12          6           0       -3.009200    0.796400    0.834200
     13          6           0       -3.552200   -0.604600    1.049000
     14          6           0       -3.037400   -1.108600   -0.285700
     15          6           0       -3.638900   -0.058200   -1.185100
     16          6           0       -3.606900    1.092100   -0.516500
     17          6           0        3.606800   -1.571300    0.720200
     18          6           0        3.612900   -0.581100    1.612100
     19          1           0        3.320700    1.595900    1.390800
     20          1           0        4.671200    0.437200   -0.538700
     21          1           0        3.127900    1.073500   -1.247900
     22          1           0        3.283300   -1.587900   -1.462300
     23          1           0        1.107600   -1.728600    0.185000
     24          1           0        1.098600    0.024200    1.721200
     25          1           0        1.321200    2.228600   -0.451300
     26          1           0        0.919900    2.393400    1.261200
     27          1           0       -0.869900    1.730700   -1.049600
     28          1           0       -1.156000    2.629200    0.431300
     29          1           0       -1.104400    0.313900    1.685800
     30          1           0       -1.094500   -1.646600    0.486700
     31          1           0       -0.924600   -1.930400   -1.919900
     32          1           0       -1.309700   -0.239400   -2.274600
     33          1           0        1.149100   -1.196800   -2.394300
     34          1           0        0.867300    0.478200   -1.964800
     35          1           0       -3.264900    1.529700    1.628500
     36          1           0       -3.102500   -1.128600    1.924500
     37          1           0       -4.665000   -0.635200    1.129900
     38          1           0       -3.316100   -2.153900   -0.537800
     39          1           0       -4.084900   -0.210200   -2.162100
     40          1           0       -4.028100    2.032600   -0.854600
     41          1           0        4.032900   -2.558000    0.866900
     42          1           0        4.047000   -0.626300    2.605100
 ---------------------------------------------------------------------
                    Distance matrix (angstroms):
                    1          2          3          4          5
     1  C    0.000000
     2  C    1.517977   0.000000
     3  C    2.209010   1.513624   0.000000
     4  C    2.423866   2.390554   1.554864   0.000000
     5  C    1.554313   2.390336   2.431303   1.573840   0.000000
     6  C    2.546901   3.182116   3.643379   2.700978   1.559451
     7  C    3.990433   4.493019   4.641076   3.341684   2.669366
     8  C    4.536762   5.181194   4.909874   3.398832   3.006536
     9  C    4.893768   5.226206   4.545373   3.010188   3.378148
    10  C    4.800711   4.662732   3.938551   2.612932   3.488930
    11  C    3.625113   3.200422   2.568863   1.543631   2.649019
    12  C    6.044038   6.708573   6.440073   4.910094   4.536253
    13  C    6.699597   7.340408   6.770381   5.226351   5.163412
    14  C    6.428229   6.767057   6.057860   4.544185   4.893833
    15  C    7.030551   7.245255   6.751369   5.265397   5.515760
    16  C    6.809516   7.198258   6.948214   5.447477   5.316457
    17  C    2.283047   2.304030   1.507448   2.463054   2.867718
    18  C    1.506936   2.308158   2.284445   2.853177   2.470481
    19  H    1.111261   2.233881   3.267319   3.448135   2.274247
    20  H    2.207043   1.116099   2.203542   3.416643   3.416922
    21  H    2.221548   1.111739   2.205281   2.663222   2.664256
    22  H    3.268340   2.231213   1.110942   2.278502   3.454095
    23  H    3.131819   3.309862   2.163941   1.112428   2.221207
    24  H    2.175773   3.320017   3.147074   2.208378   1.112314
    25  H    2.717500   2.891527   3.660159   3.038117   2.211167
    26  H    2.772547   3.738121   4.391018   3.596187   2.156846
    27  H    4.510330   4.659410   4.782719   3.547249   3.272721
    28  H    4.667515   5.294593   5.624180   4.394662   3.499345
    29  H    4.217068   5.140407   4.870640   3.450057   2.774957
    30  H    4.732426   5.171452   4.283907   2.833707   3.309647
    31  H    5.504822   5.251509   4.269530   3.130411   4.288578
    32  H    5.463416   5.226801   4.719402   3.483133   4.180040
    33  H    4.231311   3.465175   2.629618   2.170689   3.537000
    34  H    3.614867   3.074630   2.973534   2.199850   2.791367
    35  H    6.399484   7.229792   7.116418   5.636689   4.986203
    36  H    6.458563   7.242467   6.598798   5.114165   4.991006
    37  H    7.802502   8.441510   7.869630   6.324631   6.267035
    38  H    7.083908   7.331499   6.431731   5.005404   5.599570
    39  H    7.803223   7.849099   7.324163   5.916737   6.332971
    40  H    7.415255   7.769296   7.679379   6.234063   5.995149
    41  H    3.340589   3.280362   2.329017   3.295411   3.877527
    42  H    2.328702   3.285159   3.341930   3.861318   3.302436
                    6          7          8          9         10
     6  C    0.000000
     7  C    1.548245   0.000000
     8  C    2.609308   1.542378   0.000000
     9  C    3.485742   2.650539   1.569020   0.000000
    10  C    3.613898   3.025872   2.698240   1.559862   0.000000
    11  C    3.018080   3.123012   3.331938   2.666551   1.548315
    12  C    3.941141   2.582172   1.551497   2.427174   3.658140
    13  C    4.974966   3.779421   2.367724   2.380663   3.791360
    14  C    4.810665   3.646189   2.423262   1.556288   2.576622
    15  C    5.028874   3.619054   2.884556   2.490474   2.983700
    16  C    4.537336   3.004822   2.488804   2.872464   3.589622
    17  C    4.341641   5.451570   5.508062   5.242944   4.994985
    18  C    3.839452   5.128824   5.307851   5.425134   5.428253
    19  H    2.721255   4.254463   4.992174   5.625654   5.632653
    20  H    4.185420   5.559364   6.282848   6.323683   5.715178
    21  H    2.919065   4.100846   5.034803   5.134914   4.399026
    22  H    4.532218   5.381632   5.632105   5.025747   4.139048
    23  H    3.468597   3.870079   3.461619   2.786182   2.700748
    24  H    2.180901   2.973563   2.842590   3.326255   3.880597
    25  H    1.110159   2.166365   3.485918   4.184594   3.925717
    26  H    1.112712   2.156909   3.125311   4.283483   4.646059
    27  H    2.197546   1.108714   2.197428   2.794888   2.670012
    28  H    2.153430   1.112644   2.165655   3.533745   4.051775
    29  H    2.698585   2.170231   1.112119   2.207479   3.456758
    30  H    3.862430   3.379449   2.193502   1.112043   2.181497
    31  H    4.646926   4.119119   3.593410   2.158414   1.112549
    32  H    3.916692   3.072196   3.034634   2.213415   1.110159
    33  H    4.043860   4.210357   4.384463   3.496550   2.146827
    34  H    2.657925   2.828907   3.533201   3.266270   2.197633
    35  H    4.251203   3.004225   2.262614   3.443359   4.689894
    36  H    5.067937   4.138451   2.614923   2.633464   4.167466
    37  H    5.993532   4.705969   3.399957   3.411360   4.706886
    38  H    5.724023   4.671847   3.436882   2.267144   2.990119
    39  H    5.833382   4.451882   3.897294   3.325204   3.416119
    40  H    4.989970   3.451335   3.324820   3.881894   4.412737
    41  H    5.386678   6.418575   6.322475   5.893206   5.646236
    42  H    4.583770   5.878050   5.980787   6.208004   6.379641
                   11         12         13         14         15
    11  C    0.000000
    12  C    4.647199   0.000000
    13  C    5.019857   1.517824   0.000000
    14  C    4.011813   2.209977   1.516726   0.000000
    15  C    4.400214   2.281323   2.301580   1.508000   0.000000
    16  C    4.748603   1.506345   2.309237   2.284881   1.330879
    17  C    3.842990   7.027834   7.231452   6.735824   7.643285
    18  C    4.324479   6.808439   7.187231   6.935877   7.790145
    19  H    4.511074   6.404423   7.224665   7.109881   7.603114
    20  H    4.215044   7.810405   8.439813   7.866131   8.349911
    21  H    2.933288   6.486596   7.260544   6.610470   6.861069
    22  H    2.772416   7.110159   7.348304   6.447121   7.094623
    23  H    2.169008   4.872897   4.870689   4.217462   5.215043
    24  H    3.389921   4.272831   4.741011   4.734700   5.558532
    25  H    3.071297   4.738784   5.833348   5.491969   5.510944
    26  H    4.111710   4.262695   5.388201   5.506099   5.725154
    27  H    2.834522   2.999704   4.129465   3.652838   3.299376
    28  H    4.213234   2.637392   4.071952   4.245575   3.999958
    29  H    3.851647   2.141563   2.690889   3.105931   3.847625
    30  H    2.966374   3.123313   2.728046   2.158913   3.433934
    31  H    2.162964   4.400689   4.180478   2.794618   3.378237
    32  H    2.157316   3.691317   4.025977   2.774199   2.577793
    33  H    1.112235   5.629167   5.857409   4.688364   5.067891
    34  H    1.108236   4.791962   5.457786   4.536959   4.604508
    35  H    5.529808   1.110866   2.230157   3.267498   3.252330
    36  H    5.223891   2.214291   1.115036   2.211249   3.332130
    37  H    6.030754   2.208753   1.116156   2.208419   2.597121
    38  H    4.462553   3.268156   2.230248   1.110802   2.217015
    39  H    4.844155   3.338890   3.278793   2.329218   1.084688
    40  H    5.452924   2.327744   3.287096   3.342495   2.152243
    41  H    4.592889   7.800272   7.834710   7.308788   8.325636
    42  H    5.363704   7.412835   7.756917   7.666685   8.588446
                   16         17         18         19         20
    16  C    0.000000
    17  C    7.788491   0.000000
    18  C    7.710775   1.332674   0.000000
    19  H    7.203003   3.250033   2.207642   0.000000
    20  H    8.303995   2.598432   2.604395   2.624768   0.000000
    21  H    6.774424   3.331326   3.339540   2.696815   1.813730
    22  H    7.453308   2.206408   3.251802   4.275297   2.623039
    23  H    5.538498   2.560700   3.103208   4.171818   4.232455
    24  H    5.318782   3.136668   2.588435   2.741739   4.247492
    25  H    5.057870   4.586460   4.171801   2.791351   3.799902
    26  H    5.034433   4.819850   4.027782   2.533109   4.597674
    27  H    2.860625   5.837486   5.703031   4.851273   5.712963
    28  H    3.044325   6.357038   5.868792   4.693527   6.300954
    29  H    3.423190   5.165440   4.802018   4.616499   6.190409
    30  H    3.849551   4.707697   4.955949   5.552044   6.215864
    31  H    4.277823   5.256678   5.906314   6.435689   6.231069
    32  H    3.184484   5.908871   6.281336   6.184180   6.264368
    33  H    5.602208   3.985053   4.743484   5.180927   4.303301
    34  H    4.742669   4.349084   4.631916   4.304472   4.062647
    35  H    2.215735   7.593515   7.194434   6.590221   8.298915
    36  H    3.338324   6.830888   6.744920   6.997516   8.303583
    37  H    2.610321   8.334675   8.292109   8.295618   9.544574
    38  H    3.259070   7.060349   7.423396   7.863054   8.397069
    39  H    2.152317   8.326013   8.581275   8.409994   8.928821
    40  H    1.084556   8.588352   8.443987   7.696583   8.850023
    41  H    8.579252   1.084739   2.154033   4.246950   3.369623
    42  H    8.442717   2.153984   1.084682   2.634428   3.377001
                   21         22         23         24         25
    21  H    0.000000
    22  H    2.674540   0.000000
    23  H    3.739863   2.732593   0.000000
    24  H    3.746284   4.184071   2.330729   0.000000
    25  H    2.287573   4.408813   4.013718   3.103012   0.000000
    26  H    3.593464   5.371579   4.264308   2.420050   1.766595
    27  H    4.056309   5.332213   4.171511   3.803218   2.325250
    28  H    4.857130   6.409137   4.916805   3.678735   2.660072
    29  H    5.205377   5.725320   3.364097   2.222248   3.757234
    30  H    5.313797   4.792409   2.224183   3.020803   4.661826
    31  H    5.088984   4.246543   2.932774   4.601240   4.949514
    32  H    4.740265   4.855299   3.756420   4.672880   4.041916
    33  H    3.222444   2.361439   2.633880   4.293103   3.941856
    34  H    2.445126   3.218436   3.090202   3.721050   2.358094
    35  H    7.024933   7.883616   5.640830   4.616845   5.083930
    36  H    7.330160   7.242915   4.594649   4.361137   6.040227
    37  H    8.324835   8.414429   5.950737   5.831254   6.821740
    38  H    7.241926   6.687835   4.502493   5.416343   6.381092
    39  H    7.382962   7.528489   5.897158   6.481021   6.172560
    40  H    7.230691   8.181313   6.450024   6.078772   5.368061
    41  H    4.298744   2.632141   3.116131   4.000963   5.657076
    42  H    4.310415   4.248724   3.963839   3.146028   4.992196
                   26         27         28         29         30
    26  H    0.000000
    27  H    2.997057   0.000000
    28  H    2.248043   1.755625   0.000000
    29  H    2.932984   3.089454   2.633827   0.000000
    30  H    4.580312   3.717098   4.276601   2.298151   0.000000
    31  H    5.675987   3.763518   5.135332   4.250916   2.429225
    32  H    4.940105   2.361216   3.946439   4.004130   3.106654
    33  H    5.128816   3.801952   5.285431   4.899765   3.679161
    34  H    3.752044   2.328994   3.802872   4.152286   3.791212
    35  H    4.288757   3.598423   2.662639   2.479761   4.012882
    36  H    5.387407   4.690988   4.487713   2.475922   2.523422
    37  H    6.354586   4.974986   4.843287   3.726619   3.766312
    38  H    6.469779   4.619085   5.336968   3.990746   2.498492
    39  H    6.598920   3.916756   4.833877   4.895344   4.245218
    40  H    5.393467   3.178584   3.202878   4.237403   4.893016
    41  H    5.861962   6.789946   7.349930   5.942244   5.221631
    42  H    4.550100   6.564159   6.511136   5.316579   5.653641
                   31         32         33         34         35
    31  H    0.000000
    32  H    1.770196   0.000000
    33  H    2.250212   2.641333   0.000000
    34  H    3.002378   2.313062   1.752001   0.000000
    35  H    5.480916   4.710277   6.565068   5.576068   0.000000
    36  H    4.490606   4.651586   6.060758   5.785134   2.679655
    37  H    4.996941   4.796386   6.821960   6.436084   2.625962
    38  H    2.771178   3.272220   4.929568   5.144426   4.273685
    39  H    3.606279   2.777633   5.331234   5.003709   4.250682
    40  H    5.145089   3.816816   6.293099   5.254869   2.645972
    41  H    5.721621   6.617273   4.561205   5.220925   8.399239
    42  H    6.847854   7.256404   5.806660   5.675773   7.685439
                   36         37         38         39         40
    36  H    0.000000
    37  H    1.821054   0.000000
    38  H    2.675778   2.628156   0.000000
    39  H    4.302193   3.369630   2.647144   0.000000
    40  H    4.309677   3.385416   4.258414   2.596716   0.000000
    41  H    7.353614   8.911778   7.492949   8.976953   9.434876
    42  H    7.199366   8.836019   8.150253   9.435419   9.178590
                   41         42
    41  H    0.000000
    42  H    2.598654   0.000000
 Stoichiometry    C18H24
 Framework group  C1[X(C18H24)]
 Deg. of freedom   120
 Full point group                 C1      NOp   1
 Largest Abelian subgroup         C1      NOp   1
 Largest concise Abelian subgroup C1      NOp   1
                         Standard orientation:                         
 ---------------------------------------------------------------------
 Center     Atomic      Atomic             Coordinates (Angstroms)
 Number     Number       Type             X           Y           Z
 ---------------------------------------------------------------------
      1          6           0        3.043947    1.099123    0.079606
      2          6           0        3.480565    0.101086   -0.977532
      3          6           0        3.022793   -1.095471   -0.171458
      4          6           0        1.517351   -0.783501    0.060758
      5          6           0        1.529170    0.781865    0.223429
      6          6           0        0.710499    1.654254   -0.776872
      7          6           0       -0.815219    1.414459   -0.885254
      8          6           0       -1.473861    0.801034    0.367275
      9          6           0       -1.463685   -0.764027    0.478215
     10          6           0       -0.849048   -1.604475   -0.683266
     11          6           0        0.628759   -1.348653   -1.067871
     12          6           0       -2.986621    1.125901    0.481991
     13          6           0       -3.423925    0.102800    1.514376
     14          6           0       -2.976109   -1.075916    0.671436
     15          6           0       -3.705461   -0.745712   -0.606481
     16          6           0       -3.697456    0.579538   -0.728496
     17          6           0        3.739210   -0.808563    1.123467
     18          6           0        3.747554    0.515161    1.277430
     19          1           0        3.304409    2.159392   -0.127493
     20          1           0        4.582238    0.110390   -1.156155
     21          1           0        2.955029    0.204205   -1.951771
     22          1           0        3.260932   -2.088486   -0.608954
     23          1           0        1.222706   -1.270081    1.016750
     24          1           0        1.214698    1.048264    1.256571
     25          1           0        1.141659    1.590206   -1.797877
     26          1           0        0.855294    2.712103   -0.463636
     27          1           0       -1.051372    0.817337   -1.789093
     28          1           0       -1.285701    2.404494   -1.076182
     29          1           0       -0.998931    1.243311    1.270404
     30          1           0       -0.952725   -1.049246    1.423842
     31          1           0       -0.939277   -2.672128   -0.383699
     32          1           0       -1.454077   -1.502261   -1.608439
     33          1           0        1.044819   -2.329115   -1.388271
     34          1           0        0.690367   -0.717386   -1.976658
     35          1           0       -3.229828    2.181201    0.729408
     36          1           0       -2.880366    0.186551    2.484343
     37          1           0       -4.523894    0.114235    1.703431
     38          1           0       -3.206245   -2.076774    1.094757
     39          1           0       -4.210319   -1.439377   -1.270181
     40          1           0       -4.199996    1.146736   -1.504383
     41          1           0        4.235727   -1.524178    1.770016
     42          1           0        4.254068    1.057183    2.068751
 ---------------------------------------------------------------------
 Rotational constants (GHZ):           1.0841182           0.2670040           0.2540104
 Standard basis: 6-31G(d,p) (6D, 7F)
 There are   390 symmetry adapted cartesian basis functions of A   symmetry.
 There are   390 symmetry adapted basis functions of A   symmetry.
   390 basis functions,   672 primitive gaussians,   390 cartesian basis functions
    66 alpha electrons       66 beta electrons
       nuclear repulsion energy      1396.8936122299 Hartrees.
 NAtoms=   42 NActive=   42 NUniq=   42 SFac= 1.00D+00 NAtFMM=   60 NAOKFM=F Big=F
 Integral buffers will be    131072 words long.
 Raffenetti 2 integral format.
 Two-electron integral symmetry is turned on.
 One-electron integrals computed using PRISM.
 NBasis=   390 RedAO= T EigKep=  7.94D-04  NBF=   390
 NBsUse=   390 1.00D-06 EigRej= -1.00D+00 NBFU=   390
 ExpMin= 1.61D-01 ExpMax= 3.05D+03 ExpMxC= 4.57D+02 IAcc=3 IRadAn=         5 AccDes= 0.00D+00
 Harris functional with IExCor=  402 and IRadAn=       5 diagonalized for initial guess.
 HarFok:  IExCor=  402 AccDes= 0.00D+00 IRadAn=         5 IDoV= 1 UseB2=F ITyADJ=14
 ICtDFT=  3500011 ScaDFX=  1.000000  1.000000  1.000000  1.000000
 FoFCou: FMM=F IPFlag=           0 FMFlag=      100000 FMFlg1=           0
         NFxFlg=           0 DoJE=T BraDBF=F KetDBF=T FulRan=T
         wScrn=  0.000000 ICntrl=       500 IOpCl=  0 I1Cent=   200000004 NGrid=           0
         NMat0=    1 NMatS0=      1 NMatT0=    0 NMatD0=    1 NMtDS0=    0 NMtDT0=    0
 Petite list used in FoFCou.
 Requested convergence on RMS density matrix=1.00D-08 within 128 cycles.
 Requested convergence on MAX density matrix=1.00D-06.
 Requested convergence on             energy=1.00D-06.
 No special actions if energy rises.
 Integral accuracy reduced to 1.0D-05 until final iterations.
 Initial convergence to 1.0D-05 achieved.  Increase integral accuracy.
 SCF Done:  E(RB3LYP) =  -700.300880215     A.U. after   13 cycles
            NFock= 13  Conv=0.32D-08     -V/T= 2.0096
 QCSCF skips out because SCF is already converged.

 **********************************************************************

            Population analysis using the SCF Density.

 **********************************************************************

 Orbital symmetries:
       Occupied  (A) (A) (A) (A) (A) (A) (A) (A) (A) (A) (A) (A)
                 (A) (A) (A) (A) (A) (A) (A) (A) (A) (A) (A) (A)
                 (A) (A) (A) (A) (A) (A) (A) (A) (A) (A) (A) (A)
                 (A) (A) (A) (A) (A) (A) (A) (A) (A) (A) (A) (A)
                 (A) (A) (A) (A) (A) (A) (A) (A) (A) (A) (A) (A)
                 (A) (A) (A) (A) (A) (A)
       Virtual   (A) (A) (A) (A) (A) (A) (A) (A) (A) (A) (A) (A)
                 (A) (A) (A) (A) (A) (A) (A) (A) (A) (A) (A) (A)
                 (A) (A) (A) (A) (A) (A) (A) (A) (A) (A) (A) (A)
                 (A) (A) (A) (A) (A) (A) (A) (A) (A) (A) (A) (A)
                 (A) (A) (A) (A) (A) (A) (A) (A) (A) (A) (A) (A)
                 (A) (A) (A) (A) (A) (A) (A) (A) (A) (A) (A) (A)
                 (A) (A) (A) (A) (A) (A) (A) (A) (A) (A) (A) (A)
                 (A) (A) (A) (A) (A) (A) (A) (A) (A) (A) (A) (A)
                 (A) (A) (A) (A) (A) (A) (A) (A) (A) (A) (A) (A)
                 (A) (A) (A) (A) (A) (A) (A) (A) (A) (A) (A) (A)
                 (A) (A) (A) (A) (A) (A) (A) (A) (A) (A) (A) (A)
                 (A) (A) (A) (A) (A) (A) (A) (A) (A) (A) (A) (A)
                 (A) (A) (A) (A) (A) (A) (A) (A) (A) (A) (A) (A)
                 (A) (A) (A) (A) (A) (A) (A) (A) (A) (A) (A) (A)
                 (A) (A) (A) (A) (A) (A) (A) (A) (A) (A) (A) (A)
                 (A) (A) (A) (A) (A) (A) (A) (A) (A) (A) (A) (A)
                 (A) (A) (A) (A) (A) (A) (A) (A) (A) (A) (A) (A)
                 (A) (A) (A) (A) (A) (A) (A) (A) (A) (A) (A) (A)
                 (A) (A) (A) (A) (A) (A) (A) (A) (A) (A) (A) (A)
                 (A) (A) (A) (A) (A) (A) (A) (A) (A) (A) (A) (A)
                 (A) (A) (A) (A) (A) (A) (A) (A) (A) (A) (A) (A)
                 (A) (A) (A) (A) (A) (A) (A) (A) (A) (A) (A) (A)
                 (A) (A) (A) (A) (A) (A) (A) (A) (A) (A) (A) (A)
                 (A) (A) (A) (A) (A) (A) (A) (A) (A) (A) (A) (A)
                 (A) (A) (A) (A) (A) (A) (A) (A) (A) (A) (A) (A)
                 (A) (A) (A) (A) (A) (A) (A) (A) (A) (A) (A) (A)
                 (A) (A) (A) (A) (A) (A) (A) (A) (A) (A) (A) (A)
 The electronic state is 1-A.
 Alpha  occ. eigenvalues --  -10.18282 -10.18280 -10.18100 -10.18080 -10.18061
 Alpha  occ. eigenvalues --  -10.18002 -10.17943 -10.17817 -10.17789 -10.17581
 Alpha  occ. eigenvalues --  -10.17498 -10.17405 -10.17355 -10.17207 -10.17035
 Alpha  occ. eigenvalues --  -10.16945 -10.16821 -10.16730  -0.88632  -0.88255
 Alpha  occ. eigenvalues --   -0.79210  -0.76644  -0.74375  -0.72071  -0.71062
 Alpha  occ. eigenvalues --   -0.69036  -0.68799  -0.66218  -0.62191  -0.58200
 Alpha  occ. eigenvalues --   -0.56081  -0.55188  -0.54014  -0.52521  -0.51150
 Alpha  occ. eigenvalues --   -0.50479  -0.50088  -0.48588  -0.47592  -0.45860
 Alpha  occ. eigenvalues --   -0.44818  -0.41937  -0.41307  -0.41119  -0.39670
 Alpha  occ. eigenvalues --   -0.38892  -0.37756  -0.37413  -0.36840  -0.35988
 Alpha  occ. eigenvalues --   -0.35391  -0.34419  -0.34020  -0.32888  -0.32780
 Alpha  occ. eigenvalues --   -0.32532  -0.31789  -0.31298  -0.31228  -0.30447
 Alpha  occ. eigenvalues --   -0.29827  -0.28798  -0.28179  -0.27351  -0.23035
 Alpha  occ. eigenvalues --   -0.22670
 Alpha virt. eigenvalues --    0.02203   0.02767   0.07261   0.08045   0.10503
 Alpha virt. eigenvalues --    0.10829   0.11365   0.12001   0.13500   0.13997
 Alpha virt. eigenvalues --    0.14789   0.14809   0.15842   0.16199   0.16497
 Alpha virt. eigenvalues --    0.17047   0.17407   0.17810   0.18047   0.18248
 Alpha virt. eigenvalues --    0.18801   0.19302   0.19663   0.20145   0.20266
 Alpha virt. eigenvalues --    0.20939   0.21527   0.22436   0.23273   0.23930
 Alpha virt. eigenvalues --    0.24276   0.24501   0.25777   0.25980   0.26651
 Alpha virt. eigenvalues --    0.27544   0.27943   0.28647   0.30144   0.31059
 Alpha virt. eigenvalues --    0.31820   0.33261   0.34178   0.34725   0.37335
 Alpha virt. eigenvalues --    0.38482   0.40182   0.41096   0.49273   0.49997
 Alpha virt. eigenvalues --    0.51142   0.51627   0.53684   0.55378   0.55809
 Alpha virt. eigenvalues --    0.55848   0.57194   0.58513   0.58982   0.59783
 Alpha virt. eigenvalues --    0.60756   0.61551   0.62162   0.62483   0.63299
 Alpha virt. eigenvalues --    0.63961   0.64033   0.65212   0.65703   0.65982
 Alpha virt. eigenvalues --    0.66622   0.67284   0.68363   0.68574   0.69545
 Alpha virt. eigenvalues --    0.70719   0.71664   0.72236   0.73371   0.75162
 Alpha virt. eigenvalues --    0.76689   0.78179   0.78732   0.79635   0.79752
 Alpha virt. eigenvalues --    0.80093   0.81292   0.81387   0.82270   0.82406
 Alpha virt. eigenvalues --    0.83142   0.83838   0.84656   0.84846   0.85175
 Alpha virt. eigenvalues --    0.86365   0.86563   0.87096   0.87403   0.88002
 Alpha virt. eigenvalues --    0.88596   0.89383   0.90816   0.91371   0.91867
 Alpha virt. eigenvalues --    0.92863   0.93390   0.93738   0.94410   0.95339
 Alpha virt. eigenvalues --    0.96013   0.96853   0.97531   0.97981   0.99264
 Alpha virt. eigenvalues --    0.99560   1.00590   1.02892   1.03474   1.04240
 Alpha virt. eigenvalues --    1.10062   1.12915   1.15450   1.17121   1.18715
 Alpha virt. eigenvalues --    1.21188   1.22082   1.23142   1.26529   1.29899
 Alpha virt. eigenvalues --    1.31076   1.33989   1.35140   1.38117   1.38872
 Alpha virt. eigenvalues --    1.41427   1.42533   1.43003   1.45310   1.46681
 Alpha virt. eigenvalues --    1.49964   1.51530   1.52627   1.53847   1.54848
 Alpha virt. eigenvalues --    1.55729   1.59085   1.61386   1.62492   1.65294
 Alpha virt. eigenvalues --    1.66169   1.68594   1.69335   1.70492   1.72563
 Alpha virt. eigenvalues --    1.73257   1.75566   1.76281   1.77056   1.77695
 Alpha virt. eigenvalues --    1.78079   1.79028   1.80975   1.82156   1.82457
 Alpha virt. eigenvalues --    1.83266   1.84148   1.86616   1.88207   1.90867
 Alpha virt. eigenvalues --    1.91082   1.92661   1.94615   1.94774   1.95064
 Alpha virt. eigenvalues --    1.96439   1.97245   1.98052   1.98590   1.99644
 Alpha virt. eigenvalues --    2.00244   2.02274   2.02988   2.03557   2.04427
 Alpha virt. eigenvalues --    2.05228   2.06405   2.07066   2.07689   2.08561
 Alpha virt. eigenvalues --    2.08943   2.09334   2.11854   2.13599   2.14300
 Alpha virt. eigenvalues --    2.15233   2.15408   2.16539   2.17169   2.17578
 Alpha virt. eigenvalues --    2.19254   2.21931   2.22691   2.24020   2.24116
 Alpha virt. eigenvalues --    2.26839   2.29292   2.29657   2.31265   2.31724
 Alpha virt. eigenvalues --    2.32278   2.35023   2.35679   2.36471   2.37255
 Alpha virt. eigenvalues --    2.37851   2.38265   2.40739   2.41245   2.42177
 Alpha virt. eigenvalues --    2.42716   2.43574   2.43961   2.44620   2.44955
 Alpha virt. eigenvalues --    2.45667   2.47221   2.47940   2.49661   2.50437
 Alpha virt. eigenvalues --    2.51789   2.52214   2.52987   2.53464   2.55290
 Alpha virt. eigenvalues --    2.56005   2.56849   2.57937   2.59211   2.60092
 Alpha virt. eigenvalues --    2.60981   2.61536   2.62256   2.64537   2.64856
 Alpha virt. eigenvalues --    2.66536   2.67469   2.68552   2.69837   2.70931
 Alpha virt. eigenvalues --    2.71743   2.72205   2.72961   2.73725   2.74223
 Alpha virt. eigenvalues --    2.75320   2.76795   2.77490   2.78549   2.79481
 Alpha virt. eigenvalues --    2.80667   2.81572   2.82876   2.83315   2.84088
 Alpha virt. eigenvalues --    2.85095   2.85440   2.88223   2.88994   2.89976
 Alpha virt. eigenvalues --    2.90831   2.93491   2.93860   2.94385   2.96394
 Alpha virt. eigenvalues --    2.97016   3.00118   3.01348   3.04620   3.09111
 Alpha virt. eigenvalues --    3.16149   3.17666   3.21692   3.23514   3.25086
 Alpha virt. eigenvalues --    3.26962   3.30039   3.30562   3.32050   3.33473
 Alpha virt. eigenvalues --    3.34369   3.34569   3.38835   3.39892   3.41362
 Alpha virt. eigenvalues --    3.41732   3.44239   3.44337   3.46243   3.48130
 Alpha virt. eigenvalues --    3.49496   3.50654   3.52574   3.56808   3.72646
 Alpha virt. eigenvalues --    3.73360   4.22825   4.36967   4.40836   4.42419
 Alpha virt. eigenvalues --    4.46510   4.58017   4.59404   4.62861   4.64975
 Alpha virt. eigenvalues --    4.66369   4.76458   4.78577   4.81366   4.83064
 Alpha virt. eigenvalues --    4.84104   4.93193   4.98043   5.08764
          Condensed to atoms (all electrons):
               1          2          3          4          5          6
     1  C    5.003823   0.355445  -0.047699  -0.061152   0.369100  -0.036060
     2  C    0.355445   5.060987   0.352458  -0.072506  -0.070229  -0.005815
     3  C   -0.047699   0.352458   5.004953   0.372110  -0.062420   0.000884
     4  C   -0.061152  -0.072506   0.372110   4.979986   0.359662  -0.037468
     5  C    0.369100  -0.070229  -0.062420   0.359662   4.983296   0.363362
     6  C   -0.036060  -0.005815   0.000884  -0.037468   0.363362   4.972991
     7  C    0.004188  -0.000052  -0.000076  -0.001886  -0.037543   0.333315
     8  C    0.000134  -0.000005   0.000018  -0.002045  -0.005499  -0.035911
     9  C   -0.000012  -0.000022   0.000218  -0.005490   0.003479  -0.001933
    10  C   -0.000034   0.000022   0.004015  -0.035675  -0.002154  -0.000139
    11  C    0.000466  -0.003823  -0.036375   0.360146  -0.036023  -0.006770
    12  C   -0.000006   0.000000   0.000001   0.000011   0.000171   0.004312
    13  C    0.000000  -0.000000   0.000000   0.000005   0.000006  -0.000195
    14  C    0.000000   0.000000  -0.000006   0.000083  -0.000017  -0.000054
    15  C    0.000000  -0.000000   0.000000  -0.000006   0.000002   0.000032
    16  C    0.000000  -0.000000   0.000000   0.000003  -0.000014   0.000302
    17  C   -0.075228  -0.072458   0.385540  -0.031306  -0.030198   0.001115
    18  C    0.381858  -0.074847  -0.075248  -0.030213  -0.029958   0.003001
    19  H    0.374563  -0.037856   0.006519   0.006477  -0.040752  -0.003248
    20  H   -0.031109   0.369951  -0.031516   0.006292   0.005778   0.000066
    21  H   -0.038755   0.367263  -0.038124  -0.004224  -0.001613  -0.001364
    22  H    0.006390  -0.037645   0.373394  -0.038447   0.006412  -0.000111
    23  H    0.003067   0.007200  -0.045939   0.379286  -0.033726   0.003722
    24  H   -0.043693   0.006985   0.003305  -0.035238   0.372956  -0.042640
    25  H   -0.005285   0.001903   0.000383  -0.004197  -0.037044   0.373285
    26  H   -0.003995  -0.000148  -0.000041   0.004572  -0.034224   0.372669
    27  H   -0.000029   0.000006  -0.000010   0.001115  -0.000320  -0.035775
    28  H   -0.000110  -0.000001   0.000002  -0.000067   0.003586  -0.031651
    29  H    0.000023  -0.000001   0.000002   0.000247  -0.001669  -0.005618
    30  H    0.000012  -0.000001  -0.000009   0.001733  -0.000086   0.000253
    31  H   -0.000000   0.000004  -0.000115  -0.001610  -0.000174  -0.000011
    32  H    0.000005   0.000002  -0.000097   0.003897   0.000037   0.000084
    33  H    0.000060  -0.000306  -0.007634  -0.039992   0.004999   0.000113
    34  H    0.000379   0.001163  -0.001539  -0.033858  -0.011604   0.003290
    35  H    0.000000   0.000000  -0.000000  -0.000001   0.000014  -0.000045
    36  H   -0.000000  -0.000000  -0.000000   0.000001  -0.000000  -0.000013
    37  H   -0.000000   0.000000  -0.000000  -0.000000  -0.000000   0.000002
    38  H   -0.000000   0.000000   0.000000   0.000002   0.000000   0.000001
    39  H    0.000000  -0.000000  -0.000000  -0.000000   0.000000   0.000000
    40  H   -0.000000  -0.000000   0.000000   0.000000  -0.000000   0.000004
    41  H    0.006621   0.005330  -0.043045   0.000741  -0.000042   0.000011
    42  H   -0.042895   0.005117   0.006568  -0.000043   0.000801  -0.000151
               7          8          9         10         11         12
     1  C    0.004188   0.000134  -0.000012  -0.000034   0.000466  -0.000006
     2  C   -0.000052  -0.000005  -0.000022   0.000022  -0.003823   0.000000
     3  C   -0.000076   0.000018   0.000218   0.004015  -0.036375   0.000001
     4  C   -0.001886  -0.002045  -0.005490  -0.035675   0.360146   0.000011
     5  C   -0.037543  -0.005499   0.003479  -0.002154  -0.036023   0.000171
     6  C    0.333315  -0.035911  -0.001933  -0.000139  -0.006770   0.004312
     7  C    4.975922   0.375059  -0.038587  -0.005032  -0.002944  -0.040109
     8  C    0.375059   4.973780   0.356654  -0.038510  -0.002217   0.367810
     9  C   -0.038587   0.356654   4.978151   0.379245  -0.037293  -0.065767
    10  C   -0.005032  -0.038510   0.379245   4.961228   0.337785   0.001813
    11  C   -0.002944  -0.002217  -0.037293   0.337785   4.980311  -0.000072
    12  C   -0.040109   0.367810  -0.065767   0.001813  -0.000072   5.015100
    13  C    0.005820  -0.066604  -0.064093   0.005241  -0.000199   0.355769
    14  C    0.001770  -0.063154   0.367942  -0.041721   0.004298  -0.046174
    15  C   -0.000814  -0.033492  -0.031699  -0.011382   0.000134  -0.078674
    16  C   -0.007389  -0.033209  -0.031048  -0.002410  -0.000031   0.380742
    17  C   -0.000024   0.000003   0.000001  -0.000169   0.003660   0.000000
    18  C   -0.000131   0.000003   0.000009  -0.000032   0.001264  -0.000000
    19  H    0.000122   0.000003   0.000000   0.000001  -0.000074   0.000000
    20  H    0.000003   0.000000   0.000000   0.000001  -0.000065  -0.000000
    21  H   -0.000201   0.000006   0.000004  -0.000000   0.000778  -0.000000
    22  H    0.000001  -0.000001   0.000013   0.000060  -0.005873   0.000000
    23  H    0.000008   0.000363  -0.001990  -0.005740  -0.051096  -0.000001
    24  H   -0.005019   0.001392   0.000041   0.000079   0.003642  -0.000020
    25  H   -0.035885   0.003828   0.000043   0.000068   0.000032  -0.000094
    26  H   -0.035153  -0.001322  -0.000177  -0.000012   0.000232  -0.000174
    27  H    0.379083  -0.032721  -0.010877   0.002938  -0.001599  -0.003965
    28  H    0.369131  -0.041514   0.005254   0.000033   0.000107  -0.006147
    29  H   -0.050631   0.375229  -0.033643   0.003718   0.000129  -0.040696
    30  H    0.003609  -0.035278   0.368321  -0.041519  -0.005016   0.001845
    31  H    0.000158   0.004820  -0.035998   0.370289  -0.035637  -0.000106
    32  H    0.000025  -0.004251  -0.036388   0.372394  -0.034444   0.000163
    33  H    0.000089  -0.000058   0.003654  -0.033138   0.372154   0.000002
    34  H   -0.001395   0.001237  -0.000681  -0.034411   0.376629  -0.000010
    35  H   -0.002294  -0.035917   0.006785  -0.000114   0.000001   0.372752
    36  H    0.000151  -0.002067  -0.002750   0.000108  -0.000002  -0.039645
    37  H   -0.000160   0.005787   0.005794  -0.000135   0.000002  -0.029675
    38  H   -0.000105   0.006891  -0.036347  -0.001945  -0.000050   0.006189
    39  H   -0.000016  -0.000379   0.001386   0.000563   0.000006   0.007293
    40  H    0.000938   0.001300  -0.000278  -0.000063  -0.000001  -0.043100
    41  H   -0.000000   0.000000  -0.000000   0.000003  -0.000158   0.000000
    42  H    0.000002  -0.000000   0.000000  -0.000000   0.000010  -0.000000
              13         14         15         16         17         18
     1  C    0.000000   0.000000   0.000000   0.000000  -0.075228   0.381858
     2  C   -0.000000   0.000000  -0.000000  -0.000000  -0.072458  -0.074847
     3  C    0.000000  -0.000006   0.000000   0.000000   0.385540  -0.075248
     4  C    0.000005   0.000083  -0.000006   0.000003  -0.031306  -0.030213
     5  C    0.000006  -0.000017   0.000002  -0.000014  -0.030198  -0.029958
     6  C   -0.000195  -0.000054   0.000032   0.000302   0.001115   0.003001
     7  C    0.005820   0.001770  -0.000814  -0.007389  -0.000024  -0.000131
     8  C   -0.066604  -0.063154  -0.033492  -0.033209   0.000003   0.000003
     9  C   -0.064093   0.367942  -0.031699  -0.031048   0.000001   0.000009
    10  C    0.005241  -0.041721  -0.011382  -0.002410  -0.000169  -0.000032
    11  C   -0.000199   0.004298   0.000134  -0.000031   0.003660   0.001264
    12  C    0.355769  -0.046174  -0.078674   0.380742   0.000000  -0.000000
    13  C    5.063849   0.351876  -0.070647  -0.072479   0.000000   0.000000
    14  C    0.351876   5.008112   0.381965  -0.077656   0.000000   0.000000
    15  C   -0.070647   0.381965   4.915496   0.666401  -0.000000   0.000000
    16  C   -0.072479  -0.077656   0.666401   4.915883  -0.000000  -0.000000
    17  C    0.000000   0.000000  -0.000000  -0.000000   4.920266   0.663402
    18  C    0.000000   0.000000   0.000000  -0.000000   0.663402   4.925281
    19  H    0.000000   0.000000  -0.000000   0.000000   0.007848  -0.039989
    20  H    0.000000  -0.000000   0.000000   0.000000  -0.001036  -0.000741
    21  H    0.000000  -0.000000   0.000000   0.000000   0.007378   0.007566
    22  H    0.000000   0.000000  -0.000000   0.000000  -0.039555   0.008011
    23  H    0.000003  -0.000011  -0.000006   0.000002  -0.003765   0.000604
    24  H    0.000013   0.000001   0.000002  -0.000005   0.000922  -0.003437
    25  H    0.000003   0.000003   0.000004  -0.000008  -0.000030   0.000211
    26  H   -0.000001   0.000002  -0.000001   0.000010  -0.000026   0.000145
    27  H    0.000065   0.000169   0.001538   0.006111   0.000001  -0.000000
    28  H    0.000183  -0.000122   0.000370   0.000651   0.000000   0.000002
    29  H   -0.002514   0.001086   0.001210   0.004561   0.000000  -0.000029
    30  H   -0.001869  -0.038494   0.004488   0.001119  -0.000010  -0.000003
    31  H   -0.000064  -0.001621   0.000008   0.000206  -0.000002   0.000001
    32  H    0.000476  -0.009965   0.011687   0.002309   0.000002   0.000000
    33  H    0.000002  -0.000135  -0.000001  -0.000000   0.000463  -0.000023
    34  H    0.000001   0.000012  -0.000047   0.000011  -0.000079  -0.000031
    35  H   -0.037703   0.006246   0.007821  -0.040868  -0.000000   0.000000
    36  H    0.364834  -0.038528   0.007767   0.007789   0.000000   0.000000
    37  H    0.363139  -0.029648  -0.000332  -0.000514   0.000000   0.000000
    38  H   -0.037490   0.373725  -0.040891   0.008018  -0.000000   0.000000
    39  H    0.005100  -0.043549   0.375422  -0.048180   0.000000  -0.000000
    40  H    0.004875   0.007069  -0.047312   0.375570  -0.000000   0.000000
    41  H   -0.000000   0.000000  -0.000000  -0.000000   0.373613  -0.046686
    42  H   -0.000000   0.000000  -0.000000   0.000000  -0.046309   0.374004
              19         20         21         22         23         24
     1  C    0.374563  -0.031109  -0.038755   0.006390   0.003067  -0.043693
     2  C   -0.037856   0.369951   0.367263  -0.037645   0.007200   0.006985
     3  C    0.006519  -0.031516  -0.038124   0.373394  -0.045939   0.003305
     4  C    0.006477   0.006292  -0.004224  -0.038447   0.379286  -0.035238
     5  C   -0.040752   0.005778  -0.001613   0.006412  -0.033726   0.372956
     6  C   -0.003248   0.000066  -0.001364  -0.000111   0.003722  -0.042640
     7  C    0.000122   0.000003  -0.000201   0.000001   0.000008  -0.005019
     8  C    0.000003   0.000000   0.000006  -0.000001   0.000363   0.001392
     9  C    0.000000   0.000000   0.000004   0.000013  -0.001990   0.000041
    10  C    0.000001   0.000001  -0.000000   0.000060  -0.005740   0.000079
    11  C   -0.000074  -0.000065   0.000778  -0.005873  -0.051096   0.003642
    12  C    0.000000  -0.000000  -0.000000   0.000000  -0.000001  -0.000020
    13  C    0.000000   0.000000   0.000000   0.000000   0.000003   0.000013
    14  C    0.000000  -0.000000  -0.000000   0.000000  -0.000011   0.000001
    15  C   -0.000000   0.000000   0.000000  -0.000000  -0.000006   0.000002
    16  C    0.000000   0.000000   0.000000   0.000000   0.000002  -0.000005
    17  C    0.007848  -0.001036   0.007378  -0.039555  -0.003765   0.000922
    18  C   -0.039989  -0.000741   0.007566   0.008011   0.000604  -0.003437
    19  H    0.664535  -0.001908  -0.001680  -0.000229  -0.000180   0.000655
    20  H   -0.001908   0.628025  -0.032357  -0.002016  -0.000207  -0.000207
    21  H   -0.001680  -0.032357   0.651507  -0.001666  -0.000016  -0.000025
    22  H   -0.000229  -0.002016  -0.001666   0.663790   0.000901  -0.000170
    23  H   -0.000180  -0.000207  -0.000016   0.000901   0.662722  -0.009474
    24  H    0.000655  -0.000207  -0.000025  -0.000170  -0.009474   0.662454
    25  H   -0.000149  -0.000152   0.004007  -0.000033  -0.000115   0.005773
    26  H    0.003853  -0.000013   0.000072   0.000005  -0.000113  -0.006071
    27  H    0.000003  -0.000000  -0.000022   0.000001   0.000001  -0.000172
    28  H   -0.000015  -0.000000   0.000004  -0.000000   0.000005   0.000137
    29  H    0.000003  -0.000000  -0.000000   0.000000  -0.000143   0.002641
    30  H    0.000000  -0.000000   0.000000   0.000000   0.002746   0.000272
    31  H   -0.000000   0.000000   0.000001  -0.000012   0.002006   0.000007
    32  H   -0.000000  -0.000000   0.000003  -0.000005   0.000109   0.000006
    33  H    0.000007  -0.000039   0.000240   0.005764  -0.000430  -0.000142
    34  H   -0.000077  -0.000026   0.001941  -0.000111   0.005575   0.000043
    35  H   -0.000000  -0.000000   0.000000  -0.000000   0.000000   0.000003
    36  H    0.000000   0.000000  -0.000000  -0.000000  -0.000009  -0.000009
    37  H   -0.000000  -0.000000  -0.000000  -0.000000  -0.000000  -0.000000
    38  H   -0.000000  -0.000000   0.000000  -0.000000   0.000008  -0.000000
    39  H    0.000000   0.000000   0.000000   0.000000  -0.000000   0.000000
    40  H    0.000000   0.000000   0.000000   0.000000   0.000000  -0.000000
    41  H   -0.000168   0.000174  -0.000139  -0.003223   0.001595  -0.000016
    42  H   -0.003221   0.000122  -0.000131  -0.000166  -0.000027   0.001415
              25         26         27         28         29         30
     1  C   -0.005285  -0.003995  -0.000029  -0.000110   0.000023   0.000012
     2  C    0.001903  -0.000148   0.000006  -0.000001  -0.000001  -0.000001
     3  C    0.000383  -0.000041  -0.000010   0.000002   0.000002  -0.000009
     4  C   -0.004197   0.004572   0.001115  -0.000067   0.000247   0.001733
     5  C   -0.037044  -0.034224  -0.000320   0.003586  -0.001669  -0.000086
     6  C    0.373285   0.372669  -0.035775  -0.031651  -0.005618   0.000253
     7  C   -0.035885  -0.035153   0.379083   0.369131  -0.050631   0.003609
     8  C    0.003828  -0.001322  -0.032721  -0.041514   0.375229  -0.035278
     9  C    0.000043  -0.000177  -0.010877   0.005254  -0.033643   0.368321
    10  C    0.000068  -0.000012   0.002938   0.000033   0.003718  -0.041519
    11  C    0.000032   0.000232  -0.001599   0.000107   0.000129  -0.005016
    12  C   -0.000094  -0.000174  -0.003965  -0.006147  -0.040696   0.001845
    13  C    0.000003  -0.000001   0.000065   0.000183  -0.002514  -0.001869
    14  C    0.000003   0.000002   0.000169  -0.000122   0.001086  -0.038494
    15  C    0.000004  -0.000001   0.001538   0.000370   0.001210   0.004488
    16  C   -0.000008   0.000010   0.006111   0.000651   0.004561   0.001119
    17  C   -0.000030  -0.000026   0.000001   0.000000   0.000000  -0.000010
    18  C    0.000211   0.000145  -0.000000   0.000002  -0.000029  -0.000003
    19  H   -0.000149   0.003853   0.000003  -0.000015   0.000003   0.000000
    20  H   -0.000152  -0.000013  -0.000000  -0.000000  -0.000000  -0.000000
    21  H    0.004007   0.000072  -0.000022   0.000004  -0.000000   0.000000
    22  H   -0.000033   0.000005   0.000001  -0.000000   0.000000   0.000000
    23  H   -0.000115  -0.000113   0.000001   0.000005  -0.000143   0.002746
    24  H    0.005773  -0.006071  -0.000172   0.000137   0.002641   0.000272
    25  H    0.652058  -0.037864  -0.010898   0.002552   0.000097   0.000003
    26  H   -0.037864   0.655308   0.005544  -0.013381   0.001842   0.000005
    27  H   -0.010898   0.005544   0.633264  -0.038253   0.005609   0.000044
    28  H    0.002552  -0.013381  -0.038253   0.663806  -0.000366  -0.000157
    29  H    0.000097   0.001842   0.005609  -0.000366   0.670847  -0.012149
    30  H    0.000003   0.000005   0.000044  -0.000157  -0.012149   0.669165
    31  H   -0.000003   0.000001  -0.000018  -0.000002  -0.000119  -0.005693
    32  H   -0.000018  -0.000002   0.000910  -0.000085  -0.000100   0.005680
    33  H   -0.000101  -0.000003   0.000080  -0.000003   0.000003   0.000098
[...]
    30  H   -0.002052  -0.037516   0.004452   0.001221  -0.000009  -0.000000
    31  H   -0.000070  -0.002137   0.000020   0.000213  -0.000002   0.000001
    32  H    0.000493  -0.011274   0.011931   0.002687   0.000002   0.000000
    33  H    0.000002  -0.000124  -0.000002   0.000001   0.000425  -0.000015
    34  H    0.000000   0.000009  -0.000046   0.000008  -0.000074  -0.000042
    35  H   -0.034462   0.005427   0.007461  -0.039748  -0.000000   0.000000
    36  H    0.368938  -0.036148   0.006604   0.006498   0.000000   0.000000
    37  H    0.364603  -0.030085   0.000684   0.000579   0.000000  -0.000000
    38  H   -0.034384   0.374939  -0.039834   0.007635  -0.000000   0.000000
    39  H    0.004782  -0.044205   0.374481  -0.046764   0.000000   0.000000
    40  H    0.004704   0.006591  -0.046593   0.374376  -0.000000   0.000000
    41  H   -0.000000   0.000000  -0.000000  -0.000000   0.372750  -0.045422
    42  H   -0.000000   0.000000   0.000000  -0.000000  -0.045374   0.373140
              19         20         21         22         23         24
     1  C    0.375046  -0.031214  -0.037534   0.005653   0.003046  -0.041917
     2  C   -0.034967   0.370849   0.371059  -0.034788   0.006782   0.006450
     3  C    0.005727  -0.031244  -0.035445   0.373808  -0.045702   0.003718
     4  C    0.006335   0.006073  -0.003982  -0.041884   0.380350  -0.036006
     5  C   -0.044157   0.005645  -0.001924   0.006291  -0.035106   0.373986
     6  C   -0.002980   0.000100  -0.001410  -0.000103   0.003983  -0.045655
     7  C    0.000077   0.000004  -0.000222   0.000001   0.000001  -0.005134
     8  C    0.000001   0.000000   0.000006  -0.000001   0.000401   0.002129
     9  C    0.000001   0.000000   0.000004   0.000012  -0.002082  -0.000059
    10  C    0.000001   0.000001  -0.000014   0.000019  -0.005873   0.000154
    11  C   -0.000066  -0.000061   0.000894  -0.005320  -0.054995   0.003549
    12  C    0.000000  -0.000000  -0.000000  -0.000000   0.000001  -0.000034
    13  C    0.000000   0.000000   0.000000   0.000000   0.000003   0.000011
    14  C    0.000000  -0.000000  -0.000000   0.000000  -0.000050   0.000006
    15  C   -0.000000   0.000000   0.000000  -0.000000  -0.000004   0.000002
    16  C    0.000000   0.000000   0.000000   0.000000   0.000001  -0.000003
    17  C    0.007382   0.000001   0.006173  -0.037209  -0.003816   0.000833
    18  C   -0.037767   0.000493   0.006306   0.007520   0.000421  -0.003642
    19  H    0.660356  -0.001669  -0.001333  -0.000201  -0.000194   0.000621
    20  H   -0.001669   0.621322  -0.033302  -0.001737  -0.000205  -0.000203
    21  H   -0.001333  -0.033302   0.640462  -0.001368   0.000013   0.000020
    22  H   -0.000201  -0.001737  -0.001368   0.659741   0.001106  -0.000177
    23  H   -0.000194  -0.000205   0.000013   0.001106   0.667098  -0.009853
    24  H    0.000621  -0.000203   0.000020  -0.000177  -0.009853   0.665437
    25  H   -0.000215  -0.000196   0.004321  -0.000036  -0.000125   0.006590
    26  H    0.004455  -0.000015   0.000073   0.000005  -0.000133  -0.007060
    27  H    0.000005  -0.000000  -0.000025   0.000002  -0.000010  -0.000198
    28  H   -0.000014  -0.000000   0.000005  -0.000000   0.000006   0.000107
    29  H    0.000004  -0.000000  -0.000000   0.000000  -0.000157   0.002543
    30  H    0.000000  -0.000000   0.000000   0.000001   0.002627   0.000447
    31  H   -0.000000   0.000000   0.000001  -0.000011   0.002523   0.000008
    32  H   -0.000000  -0.000000   0.000003  -0.000004   0.000137   0.000006
    33  H    0.000007  -0.000030   0.000170   0.006108  -0.000417  -0.000159
    34  H   -0.000075  -0.000032   0.001793  -0.000215   0.006336   0.000072
    35  H   -0.000000  -0.000000   0.000000  -0.000000   0.000000   0.000003
    36  H    0.000000   0.000000  -0.000000  -0.000000  -0.000006  -0.000007
    37  H   -0.000000  -0.000000  -0.000000  -0.000000  -0.000000  -0.000000
    38  H   -0.000000   0.000000   0.000000  -0.000000   0.000009  -0.000000
    39  H    0.000000   0.000000   0.000000   0.000000  -0.000000   0.000000
    40  H    0.000000   0.000000   0.000000   0.000000   0.000000  -0.000000
    41  H   -0.000143   0.000054  -0.000130  -0.002717   0.002149   0.000000
    42  H   -0.002741   0.000017  -0.000130  -0.000141  -0.000035   0.001712
              25         26         27         28         29         30
     1  C   -0.005913  -0.004748  -0.000029  -0.000100  -0.000030   0.000016
     2  C    0.001943  -0.000147   0.000007  -0.000002  -0.000000   0.000001
     3  C    0.000494  -0.000043  -0.000012   0.000002   0.000003  -0.000026
     4  C   -0.004216   0.004921   0.001201  -0.000060   0.000296   0.002595
     5  C   -0.040408  -0.036481  -0.000733   0.003734  -0.001805  -0.000223
     6  C    0.374626   0.373703  -0.036573  -0.030967  -0.005923   0.000349
     7  C   -0.035159  -0.034235   0.381177   0.369642  -0.054844   0.003498
     8  C    0.004020  -0.002270  -0.036592  -0.041134   0.376221  -0.036081
     9  C    0.000013  -0.000184  -0.011784   0.005363  -0.035567   0.369058
    10  C    0.000098  -0.000014   0.003277   0.000024   0.004020  -0.044559
    11  C    0.000053   0.000232  -0.002092   0.000141   0.000119  -0.005296
    12  C   -0.000099  -0.000140  -0.003487  -0.006555  -0.040257   0.002245
    13  C    0.000002  -0.000001   0.000045   0.000124  -0.003259  -0.002052
    14  C    0.000003   0.000002   0.000189  -0.000117   0.000997  -0.037516
    15  C    0.000003  -0.000001   0.001557   0.000271   0.001302   0.004452
    16  C   -0.000004   0.000008   0.005512   0.000579   0.004593   0.001221
    17  C   -0.000028  -0.000028   0.000000   0.000000   0.000001  -0.000009
    18  C    0.000224   0.000174  -0.000000   0.000002  -0.000017  -0.000000
    19  H   -0.000215   0.004455   0.000005  -0.000014   0.000004   0.000000
    20  H   -0.000196  -0.000015  -0.000000  -0.000000  -0.000000  -0.000000
    21  H    0.004321   0.000073  -0.000025   0.000005  -0.000000   0.000000
    22  H   -0.000036   0.000005   0.000002  -0.000000   0.000000   0.000001
    23  H   -0.000125  -0.000133  -0.000010   0.000006  -0.000157   0.002627
    24  H    0.006590  -0.007060  -0.000198   0.000107   0.002543   0.000447
    25  H    0.652780  -0.038773  -0.009951   0.001904   0.000122   0.000002
    26  H   -0.038773   0.654868   0.005638  -0.011849   0.002298   0.000004
    27  H   -0.009951   0.005638   0.634440  -0.038210   0.006461   0.000069
    28  H    0.001904  -0.011849  -0.038210   0.660615  -0.000476  -0.000168
    29  H    0.000122   0.002298   0.006461  -0.000476   0.675251  -0.012391
    30  H    0.000002   0.000004   0.000069  -0.000168  -0.012391   0.670976
    31  H   -0.000002   0.000001  -0.000054  -0.000000  -0.000140  -0.006813
    32  H   -0.000016  -0.000002   0.000903  -0.000082  -0.000104   0.006641
    33  H   -0.000104  -0.000002   0.000118  -0.000004   0.000004   0.000068
    34  H    0.000003  -0.000046   0.001643   0.000104   0.000001  -0.000204
    35  H   -0.000000  -0.000009  -0.000166   0.004017  -0.003352  -0.000212
    36  H    0.000000   0.000001  -0.000011  -0.000008   0.002304   0.002125
    37  H   -0.000000  -0.000000   0.000005  -0.000007  -0.000056  -0.000122
    38  H   -0.000000  -0.000000  -0.000025   0.000004  -0.000222  -0.003732
    39  H    0.000000  -0.000000   0.000032   0.000001   0.000021  -0.000166
    40  H   -0.000000  -0.000000  -0.000106  -0.000044  -0.000172   0.000021
    41  H    0.000000  -0.000000   0.000000   0.000000   0.000000  -0.000001
    42  H    0.000004  -0.000000  -0.000000  -0.000000  -0.000001   0.000000
              31         32         33         34         35         36
     1  C    0.000000   0.000005   0.000014   0.000422   0.000000  -0.000000
     2  C    0.000003   0.000002  -0.000200   0.001203   0.000000  -0.000000
     3  C   -0.000083  -0.000097  -0.008026  -0.001257  -0.000000  -0.000000
     4  C   -0.002625   0.004084  -0.040710  -0.036729  -0.000001   0.000001
     5  C   -0.000184   0.000001   0.005217  -0.012818   0.000012  -0.000001
     6  C   -0.000013   0.000107   0.000125   0.003823  -0.000045  -0.000013
     7  C    0.000126   0.000097   0.000105  -0.001836  -0.002410   0.000162
     8  C    0.005166  -0.004246  -0.000041   0.001378  -0.038652  -0.002541
     9  C   -0.037934  -0.041331   0.003856  -0.001320   0.006577  -0.002725
    10  C    0.371082   0.373909  -0.031776  -0.035865  -0.000111   0.000124
    11  C   -0.035117  -0.033277   0.372061   0.378831   0.000001  -0.000002
    12  C   -0.000107   0.000221   0.000001  -0.000010   0.373834  -0.037449
    13  C   -0.000070   0.000493   0.000002   0.000000  -0.034462   0.368938
    14  C   -0.002137  -0.011274  -0.000124   0.000009   0.005427  -0.036148
    15  C    0.000020   0.011931  -0.000002  -0.000046   0.007461   0.006604
    16  C    0.000213   0.002687   0.000001   0.000008  -0.039748   0.006498
    17  C   -0.000002   0.000002   0.000425  -0.000074  -0.000000   0.000000
    18  C    0.000001   0.000000  -0.000015  -0.000042   0.000000   0.000000
    19  H   -0.000000  -0.000000   0.000007  -0.000075  -0.000000   0.000000
    20  H    0.000000  -0.000000  -0.000030  -0.000032  -0.000000   0.000000
    21  H    0.000001   0.000003   0.000170   0.001793   0.000000  -0.000000
    22  H   -0.000011  -0.000004   0.006108  -0.000215  -0.000000  -0.000000
    23  H    0.002523   0.000137  -0.000417   0.006336   0.000000  -0.000006
    24  H    0.000008   0.000006  -0.000159   0.000072   0.000003  -0.000007
    25  H   -0.000002  -0.000016  -0.000104   0.000003  -0.000000   0.000000
    26  H    0.000001  -0.000002  -0.000002  -0.000046  -0.000009   0.000001
    27  H   -0.000054   0.000903   0.000118   0.001643  -0.000166  -0.000011
    28  H   -0.000000  -0.000082  -0.000004   0.000104   0.004017  -0.000008
    29  H   -0.000140  -0.000104   0.000004   0.000001  -0.003352   0.002304
    30  H   -0.006813   0.006641   0.000068  -0.000204  -0.000212   0.002125
    31  H    0.661511  -0.038057  -0.011732   0.005851   0.000004  -0.000019
    32  H   -0.038057   0.642861   0.001810  -0.010310  -0.000012  -0.000020
    33  H   -0.011732   0.001810   0.658405  -0.039622  -0.000000   0.000000
    34  H    0.005851  -0.010310  -0.039622   0.648097   0.000001  -0.000000
    35  H    0.000004  -0.000012  -0.000000   0.000001   0.661326  -0.001571
    36  H   -0.000019  -0.000020   0.000000  -0.000000  -0.001571   0.648261
    37  H   -0.000001  -0.000006  -0.000000  -0.000000  -0.001705  -0.034177
    38  H    0.003513  -0.000110  -0.000001   0.000003  -0.000193  -0.001537
    39  H   -0.000049   0.000369   0.000001   0.000001  -0.000130  -0.000131
    40  H   -0.000001   0.000101  -0.000000   0.000000  -0.002993  -0.000129
    41  H   -0.000000  -0.000000  -0.000003   0.000003   0.000000   0.000000
    42  H    0.000000   0.000000  -0.000000  -0.000000   0.000000   0.000000
              37         38         39         40         41         42
     1  C   -0.000000   0.000000   0.000000  -0.000000   0.006052  -0.044019
     2  C    0.000000   0.000000  -0.000000  -0.000000   0.005026   0.004867
     3  C   -0.000000   0.000000  -0.000000   0.000000  -0.043972   0.006124
     4  C   -0.000000  -0.000002  -0.000001   0.000000   0.000102  -0.000153
     5  C   -0.000000   0.000001   0.000000  -0.000000  -0.000118   0.000319
     6  C    0.000002   0.000001  -0.000000   0.000004   0.000011  -0.000143
     7  C   -0.000155  -0.000097  -0.000020   0.001255  -0.000000   0.000002
     8  C    0.005568   0.006515  -0.000343   0.000717   0.000000  -0.000000
     9  C    0.005686  -0.038113   0.000811  -0.000322  -0.000000   0.000000
    10  C   -0.000127  -0.002267   0.000594  -0.000085   0.000003  -0.000000
    11  C    0.000002  -0.000068   0.000005  -0.000001  -0.000156   0.000011
    12  C   -0.029629   0.005376   0.006627  -0.043945   0.000000  -0.000000
    13  C    0.364603  -0.034384   0.004782   0.004704  -0.000000  -0.000000
    14  C   -0.030085   0.374939  -0.044205   0.006591   0.000000   0.000000
    15  C    0.000684  -0.039834   0.374481  -0.046593  -0.000000   0.000000
    16  C    0.000579   0.007635  -0.046764   0.374376  -0.000000  -0.000000
    17  C    0.000000  -0.000000   0.000000  -0.000000   0.372750  -0.045374
    18  C   -0.000000   0.000000   0.000000   0.000000  -0.045422   0.373140
    19  H   -0.000000  -0.000000   0.000000   0.000000  -0.000143  -0.002741
    20  H   -0.000000   0.000000   0.000000   0.000000   0.000054   0.000017
    21  H   -0.000000   0.000000   0.000000   0.000000  -0.000130  -0.000130
    22  H   -0.000000  -0.000000   0.000000   0.000000  -0.002717  -0.000141
    23  H   -0.000000   0.000009  -0.000000   0.000000   0.002149  -0.000035
    24  H   -0.000000  -0.000000   0.000000  -0.000000   0.000000   0.001712
    25  H   -0.000000  -0.000000   0.000000  -0.000000   0.000000   0.000004
    26  H   -0.000000  -0.000000  -0.000000  -0.000000  -0.000000  -0.000000
    27  H    0.000005  -0.000025   0.000032  -0.000106   0.000000  -0.000000
    28  H   -0.000007   0.000004   0.000001  -0.000044   0.000000  -0.000000
    29  H   -0.000056  -0.000222   0.000021  -0.000172   0.000000  -0.000001
    30  H   -0.000122  -0.003732  -0.000166   0.000021  -0.000001   0.000000
    31  H   -0.000001   0.003513  -0.000049  -0.000001  -0.000000   0.000000
    32  H   -0.000006  -0.000110   0.000369   0.000101  -0.000000   0.000000
    33  H   -0.000000  -0.000001   0.000001  -0.000000  -0.000003  -0.000000
    34  H   -0.000000   0.000003   0.000001   0.000000   0.000003  -0.000000
    35  H   -0.001705  -0.000193  -0.000130  -0.002993   0.000000   0.000000
    36  H   -0.034177  -0.001537  -0.000131  -0.000129   0.000000   0.000000
    37  H    0.627747  -0.001693   0.000058   0.000029  -0.000000  -0.000000
    38  H   -0.001693   0.659750  -0.002971  -0.000130  -0.000000   0.000000
    39  H    0.000058  -0.002971   0.632166  -0.004880   0.000000   0.000000
    40  H    0.000029  -0.000130  -0.004880   0.631971  -0.000000  -0.000000
    41  H   -0.000000  -0.000000   0.000000  -0.000000   0.633907  -0.004607
    42  H   -0.000000   0.000000   0.000000  -0.000000  -0.004607   0.633712
 Mulliken charges:
               1
     1  C   -0.122516
     2  C   -0.165089
     3  C   -0.123126
     4  C   -0.042419
     5  C   -0.041313
     6  C   -0.188906
     7  C   -0.185648
     8  C   -0.041072
     9  C   -0.044847
    10  C   -0.185601
    11  C   -0.181977
    12  C   -0.122683
    13  C   -0.171510
    14  C   -0.116445
    15  C   -0.061887
    16  C   -0.055773
    17  C   -0.063680
    18  C   -0.062247
    19  H    0.066505
    20  H    0.095347
    21  H    0.085513
    22  H    0.065643
    23  H    0.081769
    24  H    0.081706
    25  H    0.088039
    26  H    0.089797
    27  H    0.097778
    28  H    0.083152
    29  H    0.082212
    30  H    0.083156
    31  H    0.085129
    32  H    0.092578
    33  H    0.084470
    34  H    0.090921
    35  H    0.067111
    36  H    0.081478
    37  H    0.092801
    38  H    0.067635
    39  H    0.079714
    40  H    0.079631
    41  H    0.077212
    42  H    0.077437
 Sum of Mulliken charges =  -0.00000
 Mulliken charges with hydrogens summed into heavy atoms:
               1
     1  C   -0.056012
     2  C    0.015771
     3  C   -0.057483
     4  C    0.039351
     5  C    0.040393
     6  C   -0.011070
     7  C   -0.004717
     8  C    0.041141
     9  C    0.038310
    10  C   -0.007894
    11  C   -0.006586
    12  C   -0.055572
    13  C    0.002770
    14  C   -0.048810
    15  C    0.017827
    16  C    0.023858
    17  C    0.013532
    18  C    0.015190
 Electronic spatial extent (au):  <R**2>=           4709.6011
 Charge=             -0.0000 electrons
 Dipole moment (field-independent basis, Debye):
    X=             -0.1477    Y=              0.0274    Z=              0.0220  Tot=              0.1519
 Quadrupole moment (field-independent basis, Debye-Ang):
   XX=           -114.9296   YY=           -106.9134   ZZ=           -108.2572
   XY=             -0.0903   XZ=              1.2219   YZ=              0.0562
 Traceless Quadrupole moment (field-independent basis, Debye-Ang):
   XX=             -4.8962   YY=              3.1200   ZZ=              1.7762
   XY=             -0.0903   XZ=              1.2219   YZ=              0.0562
 Octapole moment (field-independent basis, Debye-Ang**2):
  XXX=             -3.3320  YYY=             -1.3515  ZZZ=              0.8334  XYY=             -0.0307
  XXY=             -0.6690  XXZ=             -2.2631  XZZ=              0.3550  YZZ=              0.5060
  YYZ=              1.5076  XYZ=              0.4155
 Hexadecapole moment (field-independent basis, Debye-Ang**3):
 XXXX=          -5107.0442 YYYY=           -944.7733 ZZZZ=           -683.5860 XXXY=             -1.8068
 XXXZ=             27.0018 YYYX=             -3.8347 YYYZ=              0.1260 ZZZX=             18.9600
 ZZZY=              0.4553 XXYY=           -941.3426 XXZZ=           -899.8219 YYZZ=           -271.2909
 XXYZ=             -0.2996 YYXZ=             13.1981 ZZXY=              1.0748
 N-N= 1.389657964782D+03 E-N=-4.399623067048D+03  KE= 6.935298050125D+02
 Unable to Open any file for archive entry.
 1\1\GINC-HPCS06\FOpt\RB3LYP\6-31G(d,p)\C18H24\Z002445\09-Dec-2025\0\\#
  opt=(maxstep=5) B3LYP/6-31G** SCF=(XQC,MaxCycle=200,noincore) Int=(Gr
 id=UltraFine)\\m2g_monomer_twistboat\\0,1\C,3.0627447373,0.6243724056,
 0.9534164223\C,3.5832053095,0.4700930772,-0.4956104211\C,3.0721441168,
 -0.9815609694,-0.619094206\C,1.5306337003,-0.8008838851,-0.3332376847\
 C,1.520787617,0.3562467363,0.7465038053\C,0.8057969738,1.6911617312,0.
 4222819828\C,-0.7019239569,1.6919590964,0.0509734825\C,-1.5252699911,0
 .550596297,0.655706444\C,-1.5189249371,-0.8237660523,-0.1226637956\C,-
 0.808479146,-0.9252845298,-1.4886468797\C,0.6939675863,-0.5494834393,-
 1.5964693661\C,-3.0622972134,0.8466522767,0.8109892804\C,-3.5806875125
 ,-0.5814975755,1.1001048906\C,-3.0632629793,-1.1402223191,-0.244501167
 1\C,-3.6632053404,-0.1164213421,-1.1999564046\C,-3.6520626404,1.068860
 9592,-0.5738986541\C,3.6669071613,-1.5821694789,0.6474549635\C,3.65586
 04656,-0.6259574662,1.5854677485\H,3.2765857386,1.5673851632,1.4632575
 94\H,4.6719857202,0.5461311221,-0.5645949422\H,3.1251287012,1.16176449
 18,-1.2102615047\H,3.2865084155,-1.5131233142,-1.5497685297\H,1.167792
 0638,-1.7260933214,0.1272359327\H,1.0976562796,-0.0268223239,1.6804832
 023\H,1.3548007719,2.2238781292,-0.3635963851\H,0.9290344769,2.3059537
 746,1.3237308385\H,-0.8329162362,1.6971570071,-1.0349991945\H,-1.11973
 83091,2.6473158816,0.395491435\H,-1.1518331487,0.3685697298,1.67111658
 1\H,-1.0849488938,-1.5851759814,0.5358535599\H,-0.9189698201,-1.972427
 1151,-1.8028782708\H,-1.3599191193,-0.3375013297,-2.2304495954\H,1.116
 6134279,-1.1421682803,-2.4179568897\H,0.8018652189,0.4929161565,-1.911
 782054\H,-3.2795850885,1.6195167564,1.553227938\H,-3.1164109859,-1.046
 6253955,1.9776785331\H,-4.6696066768,-0.6310217101,1.1898320529\H,-3.2
 782244653,-2.188279122,-0.468702791\H,-3.9452876489,-0.3111016922,-2.2
 29012397\H,-3.9229120309,2.0334039897,-0.9897292806\H,3.9273470211,-2.
 6278511746,0.7743051739\H,3.9090006371,-0.7285969634,2.6354985523\\Ver
 sion=ES64L-G16RevC.02\State=1-A\HF=-700.3147035\RMSD=5.051e-09\RMSF=1.
 166e-05\Dipole=-0.0585381,0.0073706,0.0094179\Quadrupole=-3.762891,1.9
 997029,1.7631882,-0.261753,0.3710003,0.4238612\PG=C01 [X(C18H24)]\\@
 The archive entry for this job was punched.


 HAPPINESS IS NOT HAVING WHAT YOU WANT --
 HAPPINESS IS WANTING WHAT YOU HAVE!

              -- FROM MRS. SEVERN'S DESK
 Job cpu time:       0 days  0 hours 59 minutes 18.7 seconds.
 Elapsed time:       0 days  0 hours  2 minutes  5.0 seconds.
 File lengths (MBytes):  RWF=    101 Int=      0 D2E=      0 Chk=     15 Scr=      1
 Normal termination of Gaussian 16 at Tue Dec  9 15:54:53 2025.
