 Entering Gaussian System, Link 0=g16
 Input=monomer_chair.com
 Output=monomer_chair.log
 Initial command:
 /usr/local/gaussian16c02/g16/l1.exe "/scr/Gau-851581.inp" -scrdir="/scr/"
 Entering Link 1 = /usr/local/gaussian16c02/g16/l1.exe PID=    851582.
  
 Copyright (c) 1988-2021, Gaussian, Inc.  All Rights Reserved.
  
 This is part of the Gaussian(R) 16 program.  It is based on
 the Gaussian(R) 09 system (copyright 2009, Gaussian, Inc.),
 the Gaussian(R) 03 system (copyright 2003, Gaussian, Inc.),
 the Gaussian(R) 98 system (copyright 1998, Gaussian, Inc.),
 the Gaussian(R) 94 system (copyright 1995, Gaussian, Inc.),
 the Gaussian 92(TM) system (copyright 1992, Gaussian, Inc.),
 the Gaussian 90(TM) system (copyright 1990, Gaussian, Inc.),
 the Gaussian 88(TM) system (copyright 1988, Gaussian, Inc.),
 the Gaussian 86(TM) system (copyright 1986, Carnegie Mellon
 University), and the Gaussian 82(TM) system (copyright 1983,
 Carnegie Mellon University). Gaussian is a federally registered
 trademark of Gaussian, Inc.
  
 This software contains proprietary and confidential information,
 including trade secrets, belonging to Gaussian, Inc.
  
 This software is provided under written license and may be
 used, copied, transmitted, or stored only in accord with that
 written license.
  
 The following legend is applicable only to US Government
 contracts under FAR:
  
                    RESTRICTED RIGHTS LEGEND
  
 Use, reproduction and disclosure by the US Government is
 subject to restrictions as set forth in subparagraphs (a)
 and (c) of the Commercial Computer Software - Restricted
 Rights clause in FAR 52.227-19.
  
 Gaussian, Inc.
 340 Quinnipiac St., Bldg. 40, Wallingford CT 06492
  
  
 ---------------------------------------------------------------
 Warning -- This program may not be used in any manner that
 competes with the business of Gaussian, Inc. or will provide
 assistance to any competitor of Gaussian, Inc.  The licensee
 of this program is prohibited from giving any competitor of
 Gaussian, Inc. access to this program.  By using this program,
 the user acknowledges that Gaussian, Inc. is engaged in the
 business of creating and licensing software in the field of
 computational chemistry and represents and warrants to the
 licensee that it is not a competitor of Gaussian, Inc. and that
 it will not use this program in any manner prohibited above.
 ---------------------------------------------------------------
  

 Cite this work as:
 Gaussian 16, Revision C.02,
 M. J. Frisch, G. W. Trucks, H. B. Schlegel, G. E. Scuseria, 
 M. A. Robb, J. R. Cheeseman, G. Scalmani, V. Barone, 
 G. A. Petersson, H. Nakatsuji, X. Li, M. Caricato, A. V. Marenich, 
 J. Bloino, B. G. Janesko, R. Gomperts, B. Mennucci, H. P. Hratchian, 
 J. V. Ortiz, A. F. Izmaylov, J. L. Sonnenberg, D. Williams-Young, 
 F. Ding, F. Lipparini, F. Egidi, J. Goings, B. Peng, A. Petrone, 
 T. Henderson, D. Ranasinghe, V. G. Zakrzewski, J. Gao, N. Rega, 
 G. Zheng, W. Liang, M. Hada, M. Ehara, K. Toyota, R. Fukuda, 
 J. Hasegawa, M. Ishida, T. Nakajima, Y. Honda, O. Kitao, H. Nakai, 
 T. Vreven, K. Throssell, J. A. Montgomery, Jr., J. E. Peralta, 
 F. Ogliaro, M. J. Bearpark, J. J. Heyd, E. N. Brothers, K. N. Kudin, 
 V. N. Staroverov, T. A. Keith, R. Kobayashi, J. Normand, 
 K. Raghavachari, A. P. Rendell, J. C. Burant, S. S. Iyengar, 
 J. Tomasi, M. Cossi, J. M. Millam, M. Klene, C. Adamo, R. Cammi, 
 J. W. Ochterski, R. L. Martin, K. Morokuma, O. Farkas, 
 J. B. Foresman, and D. J. Fox, Gaussian, Inc., Wallingford CT, 2019.
 
 ******************************************
 Gaussian 16:  ES64L-G16RevC.02  7-Dec-2021
                 9-Dec-2025 
 ******************************************
 %chk=monomer_chair
 %mem=4GB
 %nproc=32
 Will use up to   32 processors via shared memory.
 ----------------------------------------------------------------------
 # opt=(maxstep=5) B3LYP/6-31G** SCF=(XQC,MaxCycle=200,noincore) Int=(G
 rid=UltraFine)
 ----------------------------------------------------------------------
 1/8=5,18=20,19=15,26=4,38=1/1,3;
 2/9=110,12=2,17=6,18=5,40=1/2;
 3/5=1,6=6,7=101,11=2,25=1,30=1,71=1,74=-5,75=-5/1,2,3;
 4//1;
 5/5=4,7=200,8=3,13=1,38=5/2,8;
 6/7=2,8=2,9=2,10=2,28=1/1;
 7//1,2,3,16;
 1/8=5,18=20,19=15,26=4/3(2);
 2/9=110/2;
 99//99;
 2/9=110/2;
 3/5=1,6=6,7=101,11=2,25=1,30=1,71=1,74=-5,75=-5/1,2,3;
 4/5=5,16=3,69=1/1;
 5/5=4,7=200,8=3,13=1,38=5/2,8;
 7//1,2,3,16;
 1/8=5,18=20,19=15,26=4/3(-5);
 2/9=110/2;
 6/7=2,8=2,9=2,10=2,19=2,28=1/1;
 99/9=1/99;
 -----------------
 m2g_monomer_chair
 -----------------
 Symbolic Z-matrix:
 Charge =  0 Multiplicity = 1
 C                     3.1536    1.2229   -0.1919 
 C                     3.28      0.3016   -1.3891 
 C                     3.2032   -0.9574   -0.5483 
 C                     1.8406   -0.7844    0.1787 
 C                     1.8054    0.7674    0.4324 
 C                     0.6179    1.5608   -0.164 
 C                    -0.6851    1.3985    0.6478 
 C                    -1.8407    0.7844   -0.1787 
 C                    -1.8054   -0.7674   -0.4324 
 C                    -0.6179   -1.5608    0.164 
 C                     0.6851   -1.3985   -0.6478 
 C                    -3.2032    0.9574    0.5483 
 C                    -3.2801   -0.3016    1.3891 
 C                    -3.1536   -1.2229    0.1918 
 C                    -4.2569   -0.6629   -0.6687 
 C                    -4.2868    0.6522   -0.4537 
 C                     4.2868   -0.6522    0.4538 
 C                     4.2569    0.6629    0.6687 
 H                     3.255     2.3077   -0.4096 
 H                     4.2551    0.4108   -1.9213 
 H                     2.4525    0.4031   -2.1247 
 H                     3.3509   -1.9109   -1.0992 
 H                     1.8875   -1.3225    1.1539 
 H                     1.8354    0.9686    1.5285 
 H                     0.8897    2.6396   -0.1376 
 H                     0.4708    1.3338   -1.239 
 H                    -0.5204    0.8479    1.5956 
 H                    -1.0046    2.4164    0.9641 
 H                    -1.8875    1.3225   -1.1539 
 H                    -1.8354   -0.9686   -1.5285 
 H                    -0.8897   -2.6396    0.1376 
 H                    -0.4708   -1.3338    1.239 
 H                     0.5204   -0.8478   -1.5956 
 H                     1.0046   -2.4164   -0.9641 
 H                    -3.3509    1.9109    1.0992 
 H                    -2.4525   -0.4031    2.1247 
 H                    -4.2551   -0.4108    1.9213 
 H                    -3.255    -2.3077    0.4096 
 H                    -4.9602   -1.2208   -1.2775 
 H                    -5.0185    1.3432   -0.8584 
 H                     5.0185   -1.3431    0.8583 
 H                     4.9602    1.2208    1.2775 
 

 GradGradGradGradGradGradGradGradGradGradGradGradGradGradGradGradGradGrad
 Berny optimization.
 Initialization pass.
                           ----------------------------
                           !    Initial Parameters    !
                           ! (Angstroms and Degrees)  !
 --------------------------                            --------------------------
 ! Name  Definition              Value          Derivative Info.                !
 --------------------------------------------------------------------------------
 ! R1    R(1,2)                  1.5159         estimate D2E/DX2                !
 ! R2    R(1,5)                  1.554          estimate D2E/DX2                !
 ! R3    R(1,18)                 1.5072         estimate D2E/DX2                !
 ! R4    R(1,19)                 1.1111         estimate D2E/DX2                !
 ! R5    R(2,3)                  1.5159         estimate D2E/DX2                !
 ! R6    R(2,20)                 1.1162         estimate D2E/DX2                !
 ! R7    R(2,21)                 1.1118         estimate D2E/DX2                !
 ! R8    R(3,4)                  1.5541         estimate D2E/DX2                !
 ! R9    R(3,17)                 1.5072         estimate D2E/DX2                !
 ! R10   R(3,22)                 1.1111         estimate D2E/DX2                !
 ! R11   R(4,5)                  1.5728         estimate D2E/DX2                !
 ! R12   R(4,11)                 1.5477         estimate D2E/DX2                !
 ! R13   R(4,23)                 1.1148         estimate D2E/DX2                !
 ! R14   R(5,6)                  1.5477         estimate D2E/DX2                !
 ! R15   R(5,24)                 1.1148         estimate D2E/DX2                !
 ! R16   R(6,7)                  1.5438         estimate D2E/DX2                !
 ! R17   R(6,25)                 1.1128         estimate D2E/DX2                !
 ! R18   R(6,26)                 1.1085         estimate D2E/DX2                !
 ! R19   R(7,8)                  1.5478         estimate D2E/DX2                !
 ! R20   R(7,27)                 1.1084         estimate D2E/DX2                !
 ! R21   R(7,28)                 1.1128         estimate D2E/DX2                !
 ! R22   R(8,9)                  1.5728         estimate D2E/DX2                !
 ! R23   R(8,12)                 1.554          estimate D2E/DX2                !
 ! R24   R(8,29)                 1.1148         estimate D2E/DX2                !
 ! R25   R(9,10)                 1.5477         estimate D2E/DX2                !
 ! R26   R(9,14)                 1.5539         estimate D2E/DX2                !
 ! R27   R(9,30)                 1.1148         estimate D2E/DX2                !
 ! R28   R(10,11)                1.5438         estimate D2E/DX2                !
 ! R29   R(10,31)                1.1128         estimate D2E/DX2                !
 ! R30   R(10,32)                1.1085         estimate D2E/DX2                !
 ! R31   R(11,33)                1.1085         estimate D2E/DX2                !
 ! R32   R(11,34)                1.1128         estimate D2E/DX2                !
 ! R33   R(12,13)                1.5159         estimate D2E/DX2                !
 ! R34   R(12,16)                1.5071         estimate D2E/DX2                !
 ! R35   R(12,35)                1.1111         estimate D2E/DX2                !
 ! R36   R(13,14)                1.516          estimate D2E/DX2                !
 ! R37   R(13,36)                1.1119         estimate D2E/DX2                !
 ! R38   R(13,37)                1.1161         estimate D2E/DX2                !
 ! R39   R(14,15)                1.5071         estimate D2E/DX2                !
 ! R40   R(14,38)                1.1111         estimate D2E/DX2                !
 ! R41   R(15,16)                1.3329         estimate D2E/DX2                !
 ! R42   R(15,39)                1.0847         estimate D2E/DX2                !
 ! R43   R(16,40)                1.0847         estimate D2E/DX2                !
 ! R44   R(17,18)                1.3329         estimate D2E/DX2                !
 ! R45   R(17,41)                1.0846         estimate D2E/DX2                !
 ! R46   R(18,42)                1.0847         estimate D2E/DX2                !
 ! A1    A(2,1,5)              102.2086         estimate D2E/DX2                !
 ! A2    A(2,1,18)              99.4449         estimate D2E/DX2                !
 ! A3    A(2,1,19)             115.5327         estimate D2E/DX2                !
 ! A4    A(5,1,18)             107.2651         estimate D2E/DX2                !
 ! A5    A(5,1,19)             116.3646         estimate D2E/DX2                !
 ! A6    A(18,1,19)            114.07           estimate D2E/DX2                !
 ! A7    A(1,2,3)               93.5828         estimate D2E/DX2                !
 ! A8    A(1,2,20)             112.9494         estimate D2E/DX2                !
 ! A9    A(1,2,21)             113.8889         estimate D2E/DX2                !
 ! A10   A(3,2,20)             112.9519         estimate D2E/DX2                !
 ! A11   A(3,2,21)             113.8962         estimate D2E/DX2                !
 ! A12   A(20,2,21)            109.0134         estimate D2E/DX2                !
 ! A13   A(2,3,4)              102.2065         estimate D2E/DX2                !
 ! A14   A(2,3,17)              99.4495         estimate D2E/DX2                !
 ! A15   A(2,3,22)             115.5311         estimate D2E/DX2                !
 ! A16   A(4,3,17)             107.2658         estimate D2E/DX2                !
 ! A17   A(4,3,22)             116.362          estimate D2E/DX2                !
 ! A18   A(17,3,22)            114.0717         estimate D2E/DX2                !
 ! A19   A(3,4,5)              101.8246         estimate D2E/DX2                !
 ! A20   A(3,4,11)             111.1382         estimate D2E/DX2                !
 ! A21   A(3,4,23)             108.5786         estimate D2E/DX2                !
 ! A22   A(5,4,11)             117.4461         estimate D2E/DX2                !
 ! A23   A(5,4,23)             109.6383         estimate D2E/DX2                !
 ! A24   A(11,4,23)            107.8806         estimate D2E/DX2                !
 ! A25   A(1,5,4)              101.8286         estimate D2E/DX2                !
 ! A26   A(1,5,6)              111.1367         estimate D2E/DX2                !
 ! A27   A(1,5,24)             108.5872         estimate D2E/DX2                !
 ! A28   A(4,5,6)              117.4391         estimate D2E/DX2                !
 ! A29   A(4,5,24)             109.6372         estimate D2E/DX2                !
 ! A30   A(6,5,24)             107.879          estimate D2E/DX2                !
 ! A31   A(5,6,7)              113.0217         estimate D2E/DX2                !
 ! A32   A(5,6,25)             107.4827         estimate D2E/DX2                !
 ! A33   A(5,6,26)             111.749          estimate D2E/DX2                !
 ! A34   A(7,6,25)             107.1933         estimate D2E/DX2                !
 ! A35   A(7,6,26)             112.1128         estimate D2E/DX2                !
 ! A36   A(25,6,26)            104.7105         estimate D2E/DX2                !
 ! A37   A(6,7,8)              113.0222         estimate D2E/DX2                !
 ! A38   A(6,7,27)             112.1149         estimate D2E/DX2                !
 ! A39   A(6,7,28)             107.1965         estimate D2E/DX2                !
 ! A40   A(8,7,27)             111.7439         estimate D2E/DX2                !
 ! A41   A(8,7,28)             107.4787         estimate D2E/DX2                !
 ! A42   A(27,7,28)            104.7143         estimate D2E/DX2                !
 ! A43   A(7,8,9)              117.4415         estimate D2E/DX2                !
 ! A44   A(7,8,12)             111.139          estimate D2E/DX2                !
 ! A45   A(7,8,29)             107.8759         estimate D2E/DX2                !
 ! A46   A(9,8,12)             101.8285         estimate D2E/DX2                !
 ! A47   A(9,8,29)             109.6384         estimate D2E/DX2                !
 ! A48   A(12,8,29)            108.5846         estimate D2E/DX2                !
 ! A49   A(8,9,10)             117.4422         estimate D2E/DX2                !
 ! A50   A(8,9,14)             101.8263         estimate D2E/DX2                !
 ! A51   A(8,9,30)             109.6371         estimate D2E/DX2                !
 ! A52   A(10,9,14)            111.1388         estimate D2E/DX2                !
 ! A53   A(10,9,30)            107.879          estimate D2E/DX2                !
 ! A54   A(14,9,30)            108.5839         estimate D2E/DX2                !
 ! A55   A(9,10,11)            113.0217         estimate D2E/DX2                !
 ! A56   A(9,10,31)            107.4827         estimate D2E/DX2                !
 ! A57   A(9,10,32)            111.749          estimate D2E/DX2                !
 ! A58   A(11,10,31)           107.1933         estimate D2E/DX2                !
 ! A59   A(11,10,32)           112.1128         estimate D2E/DX2                !
 ! A60   A(31,10,32)           104.7105         estimate D2E/DX2                !
 ! A61   A(4,11,10)            113.02           estimate D2E/DX2                !
 ! A62   A(4,11,33)            111.7412         estimate D2E/DX2                !
 ! A63   A(4,11,34)            107.4807         estimate D2E/DX2                !
 ! A64   A(10,11,33)           112.1144         estimate D2E/DX2                !
 ! A65   A(10,11,34)           107.1965         estimate D2E/DX2                !
 ! A66   A(33,11,34)           104.7185         estimate D2E/DX2                !
 ! A67   A(8,12,13)            102.2104         estimate D2E/DX2                !
 ! A68   A(8,12,16)            107.2667         estimate D2E/DX2                !
 ! A69   A(8,12,35)            116.3631         estimate D2E/DX2                !
 ! A70   A(13,12,16)            99.445          estimate D2E/DX2                !
 ! A71   A(13,12,35)           115.5305         estimate D2E/DX2                !
 ! A72   A(16,12,35)           114.0707         estimate D2E/DX2                !
 ! A73   A(12,13,14)            93.58           estimate D2E/DX2                !
 ! A74   A(12,13,36)           113.8911         estimate D2E/DX2                !
 ! A75   A(12,13,37)           112.957          estimate D2E/DX2                !
 ! A76   A(14,13,36)           113.8849         estimate D2E/DX2                !
 ! A77   A(14,13,37)           112.955          estimate D2E/DX2                !
 ! A78   A(36,13,37)           109.0143         estimate D2E/DX2                !
 ! A79   A(9,14,13)            102.2101         estimate D2E/DX2                !
 ! A80   A(9,14,15)            107.27           estimate D2E/DX2                !
 ! A81   A(9,14,38)            116.3664         estimate D2E/DX2                !
 ! A82   A(13,14,15)            99.4411         estimate D2E/DX2                !
 ! A83   A(13,14,38)           115.5249         estimate D2E/DX2                !
 ! A84   A(15,14,38)           114.0729         estimate D2E/DX2                !
 ! A85   A(14,15,16)           106.9142         estimate D2E/DX2                !
 ! A86   A(14,15,39)           127.1585         estimate D2E/DX2                !
 ! A87   A(16,15,39)           125.695          estimate D2E/DX2                !
 ! A88   A(12,16,15)           106.913          estimate D2E/DX2                !
 ! A89   A(12,16,40)           127.1599         estimate D2E/DX2                !
 ! A90   A(15,16,40)           125.695          estimate D2E/DX2                !
 ! A91   A(3,17,18)            106.9101         estimate D2E/DX2                !
 ! A92   A(3,17,41)            127.1578         estimate D2E/DX2                !
 ! A93   A(18,17,41)           125.6984         estimate D2E/DX2                !
 ! A94   A(1,18,17)            106.9157         estimate D2E/DX2                !
 ! A95   A(1,18,42)            127.1595         estimate D2E/DX2                !
 ! A96   A(17,18,42)           125.6926         estimate D2E/DX2                !
 ! D1    D(5,1,2,3)            -57.5473         estimate D2E/DX2                !
 ! D2    D(5,1,2,20)          -174.3435         estimate D2E/DX2                !
 ! D3    D(5,1,2,21)            60.5931         estimate D2E/DX2                !
 ! D4    D(18,1,2,3)            52.5629         estimate D2E/DX2                !
 ! D5    D(18,1,2,20)          -64.2333         estimate D2E/DX2                !
 ! D6    D(18,1,2,21)          170.7033         estimate D2E/DX2                !
 ! D7    D(19,1,2,3)           175.088          estimate D2E/DX2                !
 ! D8    D(19,1,2,20)           58.2918         estimate D2E/DX2                !
 ! D9    D(19,1,2,21)          -66.7716         estimate D2E/DX2                !
 ! D10   D(2,1,5,4)             36.1723         estimate D2E/DX2                !
 ! D11   D(2,1,5,6)            -89.6823         estimate D2E/DX2                !
 ! D12   D(2,1,5,24)           151.81           estimate D2E/DX2                !
 ! D13   D(18,1,5,4)           -67.8952         estimate D2E/DX2                !
 ! D14   D(18,1,5,6)           166.2503         estimate D2E/DX2                !
 ! D15   D(18,1,5,24)           47.7426         estimate D2E/DX2                !
 ! D16   D(19,1,5,4)           163.0016         estimate D2E/DX2                !
 ! D17   D(19,1,5,6)            37.147          estimate D2E/DX2                !
 ! D18   D(19,1,5,24)          -81.3607         estimate D2E/DX2                !
 ! D19   D(2,1,18,17)          -34.6279         estimate D2E/DX2                !
 ! D20   D(2,1,18,42)          140.0499         estimate D2E/DX2                !
 ! D21   D(5,1,18,17)           71.4053         estimate D2E/DX2                !
 ! D22   D(5,1,18,42)         -113.9168         estimate D2E/DX2                !
 ! D23   D(19,1,18,17)        -158.1921         estimate D2E/DX2                !
 ! D24   D(19,1,18,42)          16.4857         estimate D2E/DX2                !
 ! D25   D(1,2,3,4)             57.5491         estimate D2E/DX2                !
 ! D26   D(1,2,3,17)           -52.5626         estimate D2E/DX2                !
 ! D27   D(1,2,3,22)          -175.0921         estimate D2E/DX2                !
 ! D28   D(20,2,3,4)           174.3433         estimate D2E/DX2                !
 ! D29   D(20,2,3,17)           64.2315         estimate D2E/DX2                !
 ! D30   D(20,2,3,22)          -58.298          estimate D2E/DX2                !
 ! D31   D(21,2,3,4)           -60.5852         estimate D2E/DX2                !
 ! D32   D(21,2,3,17)         -170.697          estimate D2E/DX2                !
 ! D33   D(21,2,3,22)           66.7735         estimate D2E/DX2                !
 ! D34   D(2,3,4,5)            -36.1805         estimate D2E/DX2                !
 ! D35   D(2,3,4,11)            89.6808         estimate D2E/DX2                !
 ! D36   D(2,3,4,23)          -151.8141         estimate D2E/DX2                !
 ! D37   D(17,3,4,5)            67.8914         estimate D2E/DX2                !
 ! D38   D(17,3,4,11)         -166.2473         estimate D2E/DX2                !
 ! D39   D(17,3,4,23)          -47.7422         estimate D2E/DX2                !
 ! D40   D(22,3,4,5)          -163.0045         estimate D2E/DX2                !
 ! D41   D(22,3,4,11)          -37.1432         estimate D2E/DX2                !
 ! D42   D(22,3,4,23)           81.3619         estimate D2E/DX2                !
 ! D43   D(2,3,17,18)           34.6226         estimate D2E/DX2                !
 ! D44   D(2,3,17,41)         -140.0387         estimate D2E/DX2                !
 ! D45   D(4,3,17,18)          -71.4104         estimate D2E/DX2                !
 ! D46   D(4,3,17,41)          113.9284         estimate D2E/DX2                !
 ! D47   D(22,3,17,18)         158.1887         estimate D2E/DX2                !
 ! D48   D(22,3,17,41)         -16.4726         estimate D2E/DX2                !
 ! D49   D(3,4,5,1)              0.0042         estimate D2E/DX2                !
 ! D50   D(3,4,5,6)            121.5957         estimate D2E/DX2                !
 ! D51   D(3,4,5,24)          -114.8622         estimate D2E/DX2                !
 ! D52   D(11,4,5,1)          -121.5902         estimate D2E/DX2                !
 ! D53   D(11,4,5,6)             0.0013         estimate D2E/DX2                !
 ! D54   D(11,4,5,24)          123.5435         estimate D2E/DX2                !
 ! D55   D(23,4,5,1)           114.8592         estimate D2E/DX2                !
 ! D56   D(23,4,5,6)          -123.5493         estimate D2E/DX2                !
 ! D57   D(23,4,5,24)           -0.0072         estimate D2E/DX2                !
 ! D58   D(3,4,11,10)          166.1083         estimate D2E/DX2                !
 ! D59   D(3,4,11,33)          -66.3175         estimate D2E/DX2                !
 ! D60   D(3,4,11,34)           48.0356         estimate D2E/DX2                !
 ! D61   D(5,4,11,10)          -77.2525         estimate D2E/DX2                !
 ! D62   D(5,4,11,33)           50.3218         estimate D2E/DX2                !
 ! D63   D(5,4,11,34)          164.6749         estimate D2E/DX2                !
 ! D64   D(23,4,11,10)          47.1835         estimate D2E/DX2                !
 ! D65   D(23,4,11,33)         174.7578         estimate D2E/DX2                !
 ! D66   D(23,4,11,34)         -70.8892         estimate D2E/DX2                !
 ! D67   D(1,5,6,7)           -166.1085         estimate D2E/DX2                !
 ! D68   D(1,5,6,25)           -48.0374         estimate D2E/DX2                !
 ! D69   D(1,5,6,26)            66.3115         estimate D2E/DX2                !
 ! D70   D(4,5,6,7)             77.253          estimate D2E/DX2                !
 ! D71   D(4,5,6,25)          -164.6759         estimate D2E/DX2                !
 ! D72   D(4,5,6,26)           -50.3271         estimate D2E/DX2                !
 ! D73   D(24,5,6,7)           -47.175          estimate D2E/DX2                !
 ! D74   D(24,5,6,25)           70.8961         estimate D2E/DX2                !
 ! D75   D(24,5,6,26)         -174.755          estimate D2E/DX2                !
 ! D76   D(5,6,7,8)           -119.9036         estimate D2E/DX2                !
 ! D77   D(5,6,7,27)             7.4807         estimate D2E/DX2                !
 ! D78   D(5,6,7,28)           121.8592         estimate D2E/DX2                !
 ! D79   D(25,6,7,8)           121.8565         estimate D2E/DX2                !
 ! D80   D(25,6,7,27)         -110.7593         estimate D2E/DX2                !
 ! D81   D(25,6,7,28)            3.6192         estimate D2E/DX2                !
 ! D82   D(26,6,7,8)             7.4855         estimate D2E/DX2                !
 ! D83   D(26,6,7,27)          134.8698         estimate D2E/DX2                !
 ! D84   D(26,6,7,28)         -110.7518         estimate D2E/DX2                !
 ! D85   D(6,7,8,9)             77.2498         estimate D2E/DX2                !
 ! D86   D(6,7,8,12)          -166.1085         estimate D2E/DX2                !
 ! D87   D(6,7,8,29)           -47.1788         estimate D2E/DX2                !
 ! D88   D(27,7,8,9)           -50.3292         estimate D2E/DX2                !
 ! D89   D(27,7,8,12)           66.3124         estimate D2E/DX2                !
 ! D90   D(27,7,8,29)         -174.7579         estimate D2E/DX2                !
 ! D91   D(28,7,8,9)          -164.6775         estimate D2E/DX2                !
 ! D92   D(28,7,8,12)          -48.0359         estimate D2E/DX2                !
 ! D93   D(28,7,8,29)           70.8938         estimate D2E/DX2                !
 ! D94   D(7,8,9,10)             0.0029         estimate D2E/DX2                !
 ! D95   D(7,8,9,14)           121.597          estimate D2E/DX2                !
 ! D96   D(7,8,9,30)          -123.5416         estimate D2E/DX2                !
 ! D97   D(12,8,9,10)         -121.5926         estimate D2E/DX2                !
 ! D98   D(12,8,9,14)            0.0015         estimate D2E/DX2                !
 ! D99   D(12,8,9,30)          114.8629         estimate D2E/DX2                !
 ! D100  D(29,8,9,10)          123.5436         estimate D2E/DX2                !
 ! D101  D(29,8,9,14)         -114.8623         estimate D2E/DX2                !
 ! D102  D(29,8,9,30)           -0.0009         estimate D2E/DX2                !
 ! D103  D(7,8,12,13)          -89.6822         estimate D2E/DX2                !
 ! D104  D(7,8,12,16)          166.2491         estimate D2E/DX2                !
 ! D105  D(7,8,12,35)           37.1447         estimate D2E/DX2                !
 ! D106  D(9,8,12,13)           36.1763         estimate D2E/DX2                !
 ! D107  D(9,8,12,16)          -67.8924         estimate D2E/DX2                !
 ! D108  D(9,8,12,35)          163.0031         estimate D2E/DX2                !
 ! D109  D(29,8,12,13)         151.8143         estimate D2E/DX2                !
 ! D110  D(29,8,12,16)          47.7455         estimate D2E/DX2                !
 ! D111  D(29,8,12,35)         -81.3589         estimate D2E/DX2                !
 ! D112  D(8,9,10,11)          -77.2551         estimate D2E/DX2                !
 ! D113  D(8,9,10,31)          164.6737         estimate D2E/DX2                !
 ! D114  D(8,9,10,32)           50.3249         estimate D2E/DX2                !
 ! D115  D(14,9,10,11)         166.1056         estimate D2E/DX2                !
 ! D116  D(14,9,10,31)          48.0345         estimate D2E/DX2                !
 ! D117  D(14,9,10,32)         -66.3143         estimate D2E/DX2                !
 ! D118  D(30,9,10,11)          47.175          estimate D2E/DX2                !
 ! D119  D(30,9,10,31)         -70.8961         estimate D2E/DX2                !
 ! D120  D(30,9,10,32)         174.755          estimate D2E/DX2                !
 ! D121  D(8,9,14,13)          -36.1754         estimate D2E/DX2                !
 ! D122  D(8,9,14,15)           67.8899         estimate D2E/DX2                !
 ! D123  D(8,9,14,38)         -162.997          estimate D2E/DX2                !
 ! D124  D(10,9,14,13)          89.6825         estimate D2E/DX2                !
 ! D125  D(10,9,14,15)        -166.2521         estimate D2E/DX2                !
 ! D126  D(10,9,14,38)         -37.1391         estimate D2E/DX2                !
 ! D127  D(30,9,14,13)        -151.8106         estimate D2E/DX2                !
 ! D128  D(30,9,14,15)         -47.7453         estimate D2E/DX2                !
 ! D129  D(30,9,14,38)          81.3678         estimate D2E/DX2                !
 ! D130  D(9,10,11,4)          119.9024         estimate D2E/DX2                !
 ! D131  D(9,10,11,33)          -7.4759         estimate D2E/DX2                !
 ! D132  D(9,10,11,34)        -121.8592         estimate D2E/DX2                !
 ! D133  D(31,10,11,4)        -121.8576         estimate D2E/DX2                !
 ! D134  D(31,10,11,33)        110.7641         estimate D2E/DX2                !
 ! D135  D(31,10,11,34)         -3.6192         estimate D2E/DX2                !
 ! D136  D(32,10,11,4)          -7.4867         estimate D2E/DX2                !
 ! D137  D(32,10,11,33)       -134.865          estimate D2E/DX2                !
 ! D138  D(32,10,11,34)        110.7518         estimate D2E/DX2                !
 ! D139  D(8,12,13,14)         -57.5434         estimate D2E/DX2                !
 ! D140  D(8,12,13,36)          60.5834         estimate D2E/DX2                !
 ! D141  D(8,12,13,37)        -174.3438         estimate D2E/DX2                !
 ! D142  D(16,12,13,14)         52.5689         estimate D2E/DX2                !
 ! D143  D(16,12,13,36)        170.6957         estimate D2E/DX2                !
 ! D144  D(16,12,13,37)        -64.2315         estimate D2E/DX2                !
 ! D145  D(35,12,13,14)        175.094          estimate D2E/DX2                !
 ! D146  D(35,12,13,36)        -66.7793         estimate D2E/DX2                !
 ! D147  D(35,12,13,37)         58.2935         estimate D2E/DX2                !
 ! D148  D(8,12,16,15)          71.4059         estimate D2E/DX2                !
 ! D149  D(8,12,16,40)        -113.9151         estimate D2E/DX2                !
 ! D150  D(13,12,16,15)        -34.6298         estimate D2E/DX2                !
 ! D151  D(13,12,16,40)        140.0493         estimate D2E/DX2                !
 ! D152  D(35,12,16,15)       -158.1917         estimate D2E/DX2                !
 ! D153  D(35,12,16,40)         16.4873         estimate D2E/DX2                !
 ! D154  D(12,13,14,9)          57.5456         estimate D2E/DX2                !
 ! D155  D(12,13,14,15)        -52.5691         estimate D2E/DX2                !
 ! D156  D(12,13,14,38)       -175.0913         estimate D2E/DX2                !
 ! D157  D(36,13,14,9)         -60.5863         estimate D2E/DX2                !
 ! D158  D(36,13,14,15)       -170.701          estimate D2E/DX2                !
 ! D159  D(36,13,14,38)         66.7768         estimate D2E/DX2                !
 ! D160  D(37,13,14,9)         174.3476         estimate D2E/DX2                !
 ! D161  D(37,13,14,15)         64.233          estimate D2E/DX2                !
 ! D162  D(37,13,14,38)        -58.2892         estimate D2E/DX2                !
 ! D163  D(9,14,15,16)         -71.405          estimate D2E/DX2                !
 ! D164  D(9,14,15,39)         113.9174         estimate D2E/DX2                !
 ! D165  D(13,14,15,16)         34.6298         estimate D2E/DX2                !
 ! D166  D(13,14,15,39)       -140.0478         estimate D2E/DX2                !
 ! D167  D(38,14,15,16)        158.1836         estimate D2E/DX2                !
 ! D168  D(38,14,15,39)        -16.4939         estimate D2E/DX2                !
 ! D169  D(14,15,16,12)         -0.0023         estimate D2E/DX2                !
 ! D170  D(14,15,16,40)       -174.7811         estimate D2E/DX2                !
 ! D171  D(39,15,16,12)        174.7749         estimate D2E/DX2                !
 ! D172  D(39,15,16,40)         -0.0038         estimate D2E/DX2                !
 ! D173  D(3,17,18,1)            0.0042         estimate D2E/DX2                !
 ! D174  D(3,17,18,42)        -174.7735         estimate D2E/DX2                !
 ! D175  D(41,17,18,1)         174.7652         estimate D2E/DX2                !
 ! D176  D(41,17,18,42)         -0.0125         estimate D2E/DX2                !
 --------------------------------------------------------------------------------
 Trust Radius=5.00D-02 FncErr=1.00D-07 GrdErr=1.00D-06 EigMax=2.50D+02 EigMin=1.00D-04
 Number of steps in this run=    252 maximum allowed number of steps=    252.
 GradGradGradGradGradGradGradGradGradGradGradGradGradGradGradGradGradGrad

                          Input orientation:                          
 ---------------------------------------------------------------------
 Center     Atomic      Atomic             Coordinates (Angstroms)
 Number     Number       Type             X           Y           Z
 ---------------------------------------------------------------------
      1          6           0        3.153600    1.222900   -0.191900
      2          6           0        3.280000    0.301600   -1.389100
      3          6           0        3.203200   -0.957400   -0.548300
      4          6           0        1.840600   -0.784400    0.178700
      5          6           0        1.805400    0.767400    0.432400
      6          6           0        0.617900    1.560800   -0.164000
      7          6           0       -0.685100    1.398500    0.647800
      8          6           0       -1.840700    0.784400   -0.178700
      9          6           0       -1.805400   -0.767400   -0.432400
     10          6           0       -0.617900   -1.560800    0.164000
     11          6           0        0.685100   -1.398500   -0.647800
     12          6           0       -3.203200    0.957400    0.548300
     13          6           0       -3.280100   -0.301600    1.389100
     14          6           0       -3.153600   -1.222900    0.191800
     15          6           0       -4.256900   -0.662900   -0.668700
     16          6           0       -4.286800    0.652200   -0.453700
     17          6           0        4.286800   -0.652200    0.453800
     18          6           0        4.256900    0.662900    0.668700
     19          1           0        3.255000    2.307700   -0.409600
     20          1           0        4.255100    0.410800   -1.921300
     21          1           0        2.452500    0.403100   -2.124700
     22          1           0        3.350900   -1.910900   -1.099200
     23          1           0        1.887500   -1.322500    1.153900
     24          1           0        1.835400    0.968600    1.528500
     25          1           0        0.889700    2.639600   -0.137600
     26          1           0        0.470800    1.333800   -1.239000
     27          1           0       -0.520400    0.847900    1.595600
     28          1           0       -1.004600    2.416400    0.964100
     29          1           0       -1.887500    1.322500   -1.153900
     30          1           0       -1.835400   -0.968600   -1.528500
     31          1           0       -0.889700   -2.639600    0.137600
     32          1           0       -0.470800   -1.333800    1.239000
     33          1           0        0.520400   -0.847800   -1.595600
     34          1           0        1.004600   -2.416400   -0.964100
     35          1           0       -3.350900    1.910900    1.099200
     36          1           0       -2.452500   -0.403100    2.124700
     37          1           0       -4.255100   -0.410800    1.921300
     38          1           0       -3.255000   -2.307700    0.409600
     39          1           0       -4.960200   -1.220800   -1.277500
     40          1           0       -5.018500    1.343200   -0.858400
     41          1           0        5.018500   -1.343100    0.858300
     42          1           0        4.960200    1.220800    1.277500
 ---------------------------------------------------------------------
                    Distance matrix (angstroms):
                    1          2          3          4          5
     1  C    0.000000
     2  C    1.515935   0.000000
     3  C    2.209794   1.515890   0.000000
     4  C    2.427049   2.389407   1.554071   0.000000
     5  C    1.553986   2.389409   2.427046   1.572796   0.000000
     6  C    2.558267   3.189550   3.629434   2.666909   1.547686
     7  C    3.933389   4.590661   4.701042   3.371093   2.578231
     8  C    5.013531   5.283913   5.348962   4.017566   3.696996
     9  C    5.348908   5.283874   5.013542   3.696897   4.017632
    10  C    4.701049   4.590673   3.933480   2.578223   3.371192
    11  C    3.629473   3.189572   2.558378   1.547708   2.667026
    12  C    6.405255   6.798196   6.775762   5.348868   5.013542
    13  C    6.798247   7.149626   6.798292   5.283913   5.283971
    14  C    6.775687   6.798129   6.405244   5.013431   5.348912
    15  C    7.661533   7.632437   7.466881   6.157301   6.325319
    16  C    7.466846   7.632454   7.661583   6.325249   6.157381
    17  C    2.284091   2.306439   1.507163   2.465168   2.858858
    18  C    1.507151   2.306385   2.284019   2.858895   2.465078
    19  H    1.111065   2.232595   3.268455   3.450755   2.276583
    20  H    2.205365   1.116235   2.205356   3.415891   3.415860
    21  H    2.213443   1.111830   2.213492   2.662748   2.662745
    22  H    3.268459   2.232538   1.111066   2.276628   3.450748
    23  H    3.145353   3.323192   2.182166   1.114794   2.212461
    24  H    2.182223   3.323274   3.145386   2.212464   1.114817
    25  H    2.671185   3.570158   4.296436   3.567637   2.160680
    26  H    2.882036   2.996593   3.632172   2.893613   2.212588
    27  H    4.102933   4.863118   4.660538   3.200989   2.601703
    28  H    4.477880   5.326136   5.601380   4.353979   3.301213
    29  H    5.133035   5.272629   5.610697   4.484817   4.057338
    30  H    5.610641   5.272585   5.133070   4.057270   4.484891
    31  H    5.601406   5.326149   4.477956   3.301211   4.354092
    32  H    4.660522   4.863121   4.102974   2.601662   3.201052
    33  H    3.632068   2.996524   2.882059   2.212485   2.893593
    34  H    4.296394   3.570097   2.671219   2.160628   3.567643
    35  H    6.666994   7.262941   7.341500   5.921455   5.323499
    36  H    6.280037   6.760544   6.280057   4.728955   4.729023
    37  H    7.875495   8.260992   7.875528   6.350889   6.350956
    38  H    7.341464   7.262919   6.667026   5.323429   5.921521
    39  H    8.543064   8.380397   8.200135   6.968633   7.256035
    40  H    8.200117   8.380434   8.543142   7.255998   6.968739
    41  H    3.341426   3.283021   2.328648   3.297431   3.867766
    42  H    2.328722   3.283102   3.341429   3.867828   3.297352
                    6          7          8          9         10
     6  C    0.000000
     7  C    1.543752   0.000000
     8  C    2.578319   1.547783   0.000000
     9  C    3.371192   2.667026   1.572798   0.000000
    10  C    3.373303   2.999339   2.666954   1.547686   0.000000
    11  C    2.999339   3.373312   3.371168   2.578231   1.543752
    12  C    3.933480   2.558378   1.553983   2.427046   3.629434
    13  C    4.590758   3.189654   2.389407   2.389471   3.189634
    14  C    4.701042   3.629486   2.426980   1.553946   2.558266
    15  C    5.381751   4.329007   2.858811   2.465078   3.839523
    16  C    4.996555   3.839597   2.465057   2.858857   4.328943
    17  C    4.328958   5.381709   6.325356   6.157396   4.996561
    18  C    3.839523   4.996490   6.157400   6.325319   5.381751
    19  H    2.751813   4.179609   5.323525   5.921521   5.503968
    20  H    4.199979   5.655210   6.350985   6.350956   5.655246
    21  H    2.924102   4.303732   4.729046   4.729023   4.303767
    22  H    4.516258   5.503947   5.921543   5.323499   4.179667
    23  H    3.414991   3.778657   4.484900   4.057338   2.704389
    24  H    2.167386   2.704324   4.057360   4.484891   3.778678
    25  H    1.112826   2.153411   3.301294   4.354092   4.472939
    26  H    1.108509   2.213663   2.601751   3.201052   3.395937
    27  H    2.213627   1.108427   2.212547   2.893649   2.803715
    28  H    2.153408   1.112765   2.160666   3.567643   4.075269
    29  H    2.704389   2.167410   1.114790   2.212461   3.414991
    30  H    3.778678   3.415060   2.212464   1.114817   2.167386
    31  H    4.472939   4.075343   3.567663   2.160680   1.112826
    32  H    3.395937   2.803731   2.893660   2.212588   1.108509
    33  H    2.803630   3.395871   3.201012   2.601700   2.213659
    34  H    4.075269   4.472893   4.354045   3.301213   2.153408
    35  H    4.179667   2.751873   2.276562   3.450748   4.516258
    36  H    4.303767   2.924158   2.662725   2.662745   2.924102
    37  H    5.655246   4.200032   3.415821   3.415860   4.199979
    38  H    5.503968   4.516309   3.450714   2.276583   2.751813
    39  H    6.331854   5.370660   3.867747   3.297352   4.587929
    40  H    5.683181   4.588034   3.297372   3.867831   5.370642
    41  H    5.370569   6.331803   7.256049   6.968712   5.683173
    42  H    4.587929   5.683090   6.968730   7.256035   6.331854
                   11         12         13         14         15
    11  C    0.000000
    12  C    4.701042   0.000000
    13  C    4.590747   1.515896   0.000000
    14  C    3.933368   2.209810   1.516022   0.000000
    15  C    4.996490   2.284019   2.306343   1.507094   0.000000
    16  C    5.381713   1.507097   2.306315   2.284034   1.332894
    17  C    3.839626   7.661582   7.632541   7.466853   8.617130
    18  C    4.329007   7.466881   7.632536   7.661539   8.719586
    19  H    4.516309   6.667026   7.263009   7.341456   8.082094
    20  H    4.200032   7.875528   8.261084   7.875468   8.670408
    21  H    2.924158   6.280057   6.760628   6.280000   6.947830
    22  H    2.751873   7.341500   7.263033   6.666974   7.721493
    23  H    2.167410   5.610697   5.272727   5.133054   6.442872
    24  H    3.415060   5.133070   5.272682   5.610665   6.678742
    25  H    4.075343   4.477956   5.326228   5.601400   6.138083
    26  H    2.803731   4.102974   4.863198   4.660491   5.163642
    27  H    3.395937   2.882055   2.996654   3.632163   4.622878
    28  H    4.472893   2.671219   3.570161   4.296412   4.767135
    29  H    3.778657   2.182166   3.323234   3.145311   3.129103
    30  H    2.704324   3.145386   3.323317   2.182144   2.587735
    31  H    2.153411   4.296436   3.570225   2.671183   3.986916
    32  H    2.213663   3.632172   2.996687   2.882073   4.292316
    33  H    1.108477   4.660499   4.863185   4.102898   4.869900
    34  H    1.112765   5.601380   5.326217   4.477854   5.553864
    35  H    5.503947   1.111066   2.232535   3.268487   3.251269
    36  H    4.303732   2.213492   1.111904   2.213530   3.335632
    37  H    5.655210   2.205356   1.116148   2.205443   2.602241
    38  H    4.179609   3.268455   2.232597   1.111085   2.207238
    39  H    5.683090   3.341429   3.283050   2.328659   1.084675
    40  H    6.331850   2.328725   3.283087   3.341503   2.154172
    41  H    4.588002   8.543111   8.380527   8.200115   9.424831
    42  H    5.370660   8.200135   8.380495   8.543077   9.606818
                   16         17         18         19         20
    16  C    0.000000
    17  C    8.719612   0.000000
    18  C    8.617117   1.332878   0.000000
    19  H    7.721488   3.251320   2.207238   0.000000
    20  H    8.670420   2.602321   2.602241   2.623674   0.000000
    21  H    6.947838   3.335712   3.335632   2.685717   1.814056
    22  H    8.082117   2.207271   3.251269   4.275667   2.623684
    23  H    6.678757   2.587679   3.129103   4.182456   4.250496
    24  H    6.442869   3.129111   2.587735   2.750397   4.250554
    25  H    5.553902   4.767178   3.986916   2.403911   4.413055
    26  H    4.869911   4.622945   4.292316   3.064010   3.954540
    27  H    4.292284   5.163640   4.869904   4.517243   5.946851
    28  H    3.986903   6.138047   5.553864   4.476948   6.325536
    29  H    2.587706   6.678781   6.442872   5.288658   6.257127
    30  H    3.129145   6.442900   6.678742   6.156156   6.257094
    31  H    4.767166   5.553908   6.138083   6.477171   6.325581
    32  H    4.622909   4.869895   5.163642   5.464430   5.946869
    33  H    5.163633   4.292327   4.622846   4.340716   3.954509
    34  H    6.138056   3.986939   4.767135   5.262023   4.413054
    35  H    2.207200   8.082109   7.721493   6.787624   8.320154
    36  H    3.335635   6.947814   6.947830   6.807839   7.875560
    37  H    2.602230   8.670403   8.670408   8.320153   9.373586
    38  H    3.251293   7.721488   8.082094   8.022039   8.320153
    39  H    2.154122   9.424846   9.606818   8.982932   9.380744
    40  H    1.084734   9.606878   9.424855   8.341612   9.380767
    41  H    9.606830   1.084596   2.154070   4.248040   3.374184
    42  H    9.424827   2.154084   1.084675   2.633508   3.374254
                   21         22         23         24         25
    21  H    0.000000
    22  H    2.685772   0.000000
    23  H    3.747818   2.750312   0.000000
    24  H    3.747862   4.182471   2.322107   0.000000
    25  H    3.375329   5.262056   4.285069   2.542141   0.000000
    26  H    2.361737   4.340806   3.845639   3.107179   1.758884
    27  H    4.782950   5.464420   3.271654   2.359844   2.864010
    28  H    5.054266   6.477122   4.730712   3.237325   2.202711
    29  H    4.541294   6.156192   5.154861   4.602228   3.237354
    30  H    4.541267   5.288661   4.602228   5.154878   4.730738
    31  H    5.054337   4.476982   3.237354   4.730738   5.577809
    32  H    4.782989   4.517257   2.359862   3.271607   4.419717
    33  H    2.361717   3.064037   3.107097   3.845586   3.797908
    34  H    3.375350   2.403936   2.542057   4.285033   5.124397
    35  H    6.807822   8.022047   6.156192   5.288661   4.476982
    36  H    6.539601   6.807822   4.541294   4.541267   5.054337
    37  H    7.875560   8.320154   6.257127   6.257094   6.325581
    38  H    6.807839   6.787624   5.288658   6.156156   6.477171
    39  H    7.635635   8.341607   7.267258   7.671199   7.100943
    40  H    7.635650   8.982984   7.671254   7.267294   6.091554
    41  H    4.304865   2.633456   3.144990   3.990645   5.822431
    42  H    4.304899   4.248069   3.990631   3.144993   4.537011
                   26         27         28         29         30
    26  H    0.000000
    27  H    3.041962   0.000000
    28  H    2.863997   1.758816   0.000000
    29  H    2.359862   3.107082   2.542057   0.000000
    30  H    3.271607   3.845634   4.285033   2.322107   0.000000
    31  H    4.419717   3.798000   5.124397   4.285069   2.542141
    32  H    3.760743   2.211208   3.797962   3.845639   3.107179
    33  H    2.211109   3.760641   4.419580   3.271587   2.359849
    34  H    3.797962   4.419654   5.577705   4.730712   3.237325
    35  H    4.517257   3.064003   2.403936   2.750312   4.182471
    36  H    4.782989   2.361770   3.375350   3.747818   3.747862
    37  H    5.946869   3.954540   4.413054   4.250496   4.250554
    38  H    5.464430   4.340788   5.262023   4.182456   2.750397
    39  H    6.001935   5.678560   5.822436   3.990631   3.144993
    40  H    5.502487   5.147848   4.537032   3.144982   3.990687
    41  H    5.678559   6.001958   7.100899   7.671193   7.267256
    42  H    5.147840   5.502474   6.091512   7.267258   7.671199
                   31         32         33         34         35
    31  H    0.000000
    32  H    1.758884   0.000000
    33  H    2.864073   3.041978   0.000000
    34  H    2.202711   2.863997   1.758905   0.000000
    35  H    5.262056   4.340806   5.464370   6.477122   0.000000
    36  H    3.375329   2.361737   4.782941   5.054266   2.685772
    37  H    4.413055   3.954540   5.946844   6.325536   2.623684
    38  H    2.403911   3.064010   4.517276   4.476948   4.275667
    39  H    4.537011   5.147840   5.502481   6.091512   4.248069
    40  H    5.822517   5.678643   6.001946   7.100951   2.633509
    41  H    6.091564   5.502493   5.147801   4.537015   8.982951
    42  H    7.100943   6.001935   5.678524   5.822436   8.341607
                   36         37         38         39         40
    36  H    0.000000
    37  H    1.814056   0.000000
    38  H    2.685717   2.623674   0.000000
    39  H    4.304899   3.374254   2.633508   0.000000
    40  H    4.304974   3.374319   4.248156   2.598680   0.000000
    41  H    7.635654   9.380768   8.341618  10.205442  10.531127
    42  H    7.635635   9.380744   8.982932  10.531086  10.205464
                   41         42
    41  H    0.000000
    42  H    2.598598   0.000000
 Stoichiometry    C18H24
 Framework group  C1[X(C18H24)]
 Deg. of freedom   120
 Full point group                 C1      NOp   1
 Largest Abelian subgroup         C1      NOp   1
 Largest concise Abelian subgroup C1      NOp   1
                         Standard orientation:                         
 ---------------------------------------------------------------------
 Center     Atomic      Atomic             Coordinates (Angstroms)
 Number     Number       Type             X           Y           Z
 ---------------------------------------------------------------------
      1          6           0       -3.189989   -1.104896   -0.284135
      2          6           0       -3.324836    0.000052   -1.313195
      3          6           0       -3.190030    1.104898   -0.284085
      4          6           0       -1.812734    0.786382    0.361469
      5          6           0       -1.812806   -0.786414    0.361473
      6          6           0       -0.664685   -1.499651   -0.392480
      7          6           0        0.664604   -1.499685    0.392479
      8          6           0        1.812816   -0.786381   -0.361469
      9          6           0        1.812788    0.786417   -0.361470
     10          6           0        0.664667    1.499654    0.392482
     11          6           0       -0.664622    1.499688   -0.392477
     12          6           0        3.190012   -1.104895    0.284087
     13          6           0        3.324918   -0.000051    1.313194
     14          6           0        3.189968    1.104915    0.284039
     15          6           0        4.252892    0.666451   -0.690267
     16          6           0        4.252901   -0.666444   -0.690268
     17          6           0       -4.252916    0.666431    0.690369
     18          6           0       -4.252910   -0.666447    0.690270
     19          1           0       -3.327072   -2.137824   -0.669796
     20          1           0       -4.317154    0.000024   -1.824357
     21          1           0       -2.521459    0.000005   -2.081798
     22          1           0       -3.327084    2.137843   -0.669712
     23          1           0       -1.817440    1.161047    1.411407
     24          1           0       -1.817415   -1.161060    1.411442
     25          1           0       -0.965000   -2.562212   -0.530887
     26          1           0       -0.541767   -1.105579   -1.421261
     27          1           0        0.541758   -1.105626    1.421186
     28          1           0        0.964960   -2.562182    0.530804
     29          1           0        1.817422   -1.161044   -1.411404
     30          1           0        1.817396    1.161063   -1.411439
     31          1           0        0.964982    2.562215    0.530889
     32          1           0        0.541749    1.105582    1.421264
     33          1           0       -0.541779    1.105530   -1.421200
     34          1           0       -0.964978    2.562185   -0.530802
     35          1           0        3.327066   -2.137840    0.669715
     36          1           0        2.521441   -0.000002    2.081800
     37          1           0        4.317136   -0.000020    1.824360
     38          1           0        3.327054    2.137827    0.669798
     39          1           0        4.953748    1.299332   -1.223918
     40          1           0        4.953767   -1.299348   -1.223997
     41          1           0       -4.953791    1.299269    1.223885
     42          1           0       -4.953766   -1.299329    1.223921
 ---------------------------------------------------------------------
 Rotational constants (GHZ):           1.2571796           0.2366581           0.2204287
 Standard basis: 6-31G(d,p) (6D, 7F)
 There are   390 symmetry adapted cartesian basis functions of A   symmetry.
 There are   390 symmetry adapted basis functions of A   symmetry.
   390 basis functions,   672 primitive gaussians,   390 cartesian basis functions
    66 alpha electrons       66 beta electrons
       nuclear repulsion energy      1375.9043548045 Hartrees.
 NAtoms=   42 NActive=   42 NUniq=   42 SFac= 1.00D+00 NAtFMM=   60 NAOKFM=F Big=F
 Integral buffers will be    131072 words long.
 Raffenetti 2 integral format.
 Two-electron integral symmetry is turned on.
 One-electron integrals computed using PRISM.
 NBasis=   390 RedAO= T EigKep=  7.78D-04  NBF=   390
 NBsUse=   390 1.00D-06 EigRej= -1.00D+00 NBFU=   390
 ExpMin= 1.61D-01 ExpMax= 3.05D+03 ExpMxC= 4.57D+02 IAcc=3 IRadAn=         5 AccDes= 0.00D+00
 Harris functional with IExCor=  402 and IRadAn=       5 diagonalized for initial guess.
 HarFok:  IExCor=  402 AccDes= 0.00D+00 IRadAn=         5 IDoV= 1 UseB2=F ITyADJ=14
 ICtDFT=  3500011 ScaDFX=  1.000000  1.000000  1.000000  1.000000
 FoFCou: FMM=F IPFlag=           0 FMFlag=      100000 FMFlg1=           0
         NFxFlg=           0 DoJE=T BraDBF=F KetDBF=T FulRan=T
         wScrn=  0.000000 ICntrl=       500 IOpCl=  0 I1Cent=   200000004 NGrid=           0
         NMat0=    1 NMatS0=      1 NMatT0=    0 NMatD0=    1 NMtDS0=    0 NMtDT0=    0
 Petite list used in FoFCou.
 Requested convergence on RMS density matrix=1.00D-08 within 128 cycles.
 Requested convergence on MAX density matrix=1.00D-06.
 Requested convergence on             energy=1.00D-06.
 No special actions if energy rises.
 Integral accuracy reduced to 1.0D-05 until final iterations.
 Initial convergence to 1.0D-05 achieved.  Increase integral accuracy.
 SCF Done:  E(RB3LYP) =  -700.301375196     A.U. after   12 cycles
            NFock= 12  Conv=0.57D-08     -V/T= 2.0096
 QCSCF skips out because SCF is already converged.

 **********************************************************************

            Population analysis using the SCF Density.

 **********************************************************************

 Orbital symmetries:
       Occupied  (A) (A) (A) (A) (A) (A) (A) (A) (A) (A) (A) (A)
                 (A) (A) (A) (A) (A) (A) (A) (A) (A) (A) (A) (A)
                 (A) (A) (A) (A) (A) (A) (A) (A) (A) (A) (A) (A)
                 (A) (A) (A) (A) (A) (A) (A) (A) (A) (A) (A) (A)
                 (A) (A) (A) (A) (A) (A) (A) (A) (A) (A) (A) (A)
                 (A) (A) (A) (A) (A) (A)
       Virtual   (A) (A) (A) (A) (A) (A) (A) (A) (A) (A) (A) (A)
                 (A) (A) (A) (A) (A) (A) (A) (A) (A) (A) (A) (A)
                 (A) (A) (A) (A) (A) (A) (A) (A) (A) (A) (A) (A)
                 (A) (A) (A) (A) (A) (A) (A) (A) (A) (A) (A) (A)
                 (A) (A) (A) (A) (A) (A) (A) (A) (A) (A) (A) (A)
                 (A) (A) (A) (A) (A) (A) (A) (A) (A) (A) (A) (A)
                 (A) (A) (A) (A) (A) (A) (A) (A) (A) (A) (A) (A)
                 (A) (A) (A) (A) (A) (A) (A) (A) (A) (A) (A) (A)
                 (A) (A) (A) (A) (A) (A) (A) (A) (A) (A) (A) (A)
                 (A) (A) (A) (A) (A) (A) (A) (A) (A) (A) (A) (A)
                 (A) (A) (A) (A) (A) (A) (A) (A) (A) (A) (A) (A)
                 (A) (A) (A) (A) (A) (A) (A) (A) (A) (A) (A) (A)
                 (A) (A) (A) (A) (A) (A) (A) (A) (A) (A) (A) (A)
                 (A) (A) (A) (A) (A) (A) (A) (A) (A) (A) (A) (A)
                 (A) (A) (A) (A) (A) (A) (A) (A) (A) (A) (A) (A)
                 (A) (A) (A) (A) (A) (A) (A) (A) (A) (A) (A) (A)
                 (A) (A) (A) (A) (A) (A) (A) (A) (A) (A) (A) (A)
                 (A) (A) (A) (A) (A) (A) (A) (A) (A) (A) (A) (A)
                 (A) (A) (A) (A) (A) (A) (A) (A) (A) (A) (A) (A)
                 (A) (A) (A) (A) (A) (A) (A) (A) (A) (A) (A) (A)
                 (A) (A) (A) (A) (A) (A) (A) (A) (A) (A) (A) (A)
                 (A) (A) (A) (A) (A) (A) (A) (A) (A) (A) (A) (A)
                 (A) (A) (A) (A) (A) (A) (A) (A) (A) (A) (A) (A)
                 (A) (A) (A) (A) (A) (A) (A) (A) (A) (A) (A) (A)
                 (A) (A) (A) (A) (A) (A) (A) (A) (A) (A) (A) (A)
                 (A) (A) (A) (A) (A) (A) (A) (A) (A) (A) (A) (A)
                 (A) (A) (A) (A) (A) (A) (A) (A) (A) (A) (A) (A)
 The electronic state is 1-A.
 Alpha  occ. eigenvalues --  -10.18242 -10.18241 -10.18225 -10.18225 -10.17873
 Alpha  occ. eigenvalues --  -10.17873 -10.17872 -10.17872 -10.17676 -10.17674
 Alpha  occ. eigenvalues --  -10.17656 -10.17655 -10.17286 -10.17286 -10.16821
 Alpha  occ. eigenvalues --  -10.16821 -10.16732 -10.16732  -0.88567  -0.88271
 Alpha  occ. eigenvalues --   -0.79509  -0.76959  -0.74768  -0.72131  -0.70274
 Alpha  occ. eigenvalues --   -0.69040  -0.68859  -0.65945  -0.62447  -0.59680
 Alpha  occ. eigenvalues --   -0.54548  -0.54366  -0.54017  -0.52878  -0.50724
 Alpha  occ. eigenvalues --   -0.50585  -0.50267  -0.49869  -0.47716  -0.47087
 Alpha  occ. eigenvalues --   -0.45582  -0.41563  -0.40796  -0.40602  -0.38773
 Alpha  occ. eigenvalues --   -0.38465  -0.38420  -0.38203  -0.36780  -0.35988
 Alpha  occ. eigenvalues --   -0.35227  -0.34352  -0.33401  -0.33099  -0.32975
 Alpha  occ. eigenvalues --   -0.32674  -0.32377  -0.31846  -0.30778  -0.30360
 Alpha  occ. eigenvalues --   -0.29907  -0.29228  -0.28791  -0.27171  -0.23048
 Alpha  occ. eigenvalues --   -0.22357
 Alpha virt. eigenvalues --    0.02564   0.02794   0.07372   0.08228   0.09490
 Alpha virt. eigenvalues --    0.10125   0.11581   0.11770   0.12528   0.13045
 Alpha virt. eigenvalues --    0.15006   0.16022   0.16253   0.16474   0.16535
 Alpha virt. eigenvalues --    0.16909   0.17115   0.17233   0.17612   0.17990
 Alpha virt. eigenvalues --    0.18391   0.19151   0.19658   0.19808   0.21005
 Alpha virt. eigenvalues --    0.21434   0.21754   0.22325   0.22977   0.23233
 Alpha virt. eigenvalues --    0.24550   0.25454   0.25853   0.25858   0.26579
 Alpha virt. eigenvalues --    0.28205   0.28507   0.28592   0.29493   0.30330
 Alpha virt. eigenvalues --    0.30981   0.32655   0.33477   0.35626   0.37359
 Alpha virt. eigenvalues --    0.38654   0.40855   0.41469   0.49120   0.50245
 Alpha virt. eigenvalues --    0.50645   0.52930   0.53661   0.55675   0.56372
 Alpha virt. eigenvalues --    0.57685   0.57705   0.58285   0.58773   0.59865
 Alpha virt. eigenvalues --    0.60059   0.60401   0.60793   0.61907   0.62993
 Alpha virt. eigenvalues --    0.63611   0.64679   0.65100   0.66076   0.66449
 Alpha virt. eigenvalues --    0.67521   0.67575   0.68028   0.68237   0.68739
 Alpha virt. eigenvalues --    0.70861   0.72057   0.72881   0.73094   0.73979
 Alpha virt. eigenvalues --    0.75299   0.76768   0.77942   0.78551   0.78709
 Alpha virt. eigenvalues --    0.79149   0.79776   0.81172   0.82692   0.82737
 Alpha virt. eigenvalues --    0.84111   0.84333   0.84467   0.85174   0.85270
 Alpha virt. eigenvalues --    0.85337   0.86015   0.86959   0.87532   0.88191
 Alpha virt. eigenvalues --    0.88287   0.88543   0.88635   0.90711   0.91305
 Alpha virt. eigenvalues --    0.92903   0.93509   0.93804   0.94067   0.94176
 Alpha virt. eigenvalues --    0.95739   0.96361   0.98484   0.99122   0.99153
 Alpha virt. eigenvalues --    0.99371   0.99496   1.01908   1.02498   1.04647
 Alpha virt. eigenvalues --    1.06780   1.08733   1.13435   1.17233   1.19661
 Alpha virt. eigenvalues --    1.20704   1.23521   1.24682   1.27756   1.31927
 Alpha virt. eigenvalues --    1.32906   1.33384   1.34533   1.35908   1.38785
 Alpha virt. eigenvalues --    1.39244   1.42595   1.44398   1.45427   1.46457
 Alpha virt. eigenvalues --    1.50627   1.51137   1.52085   1.53306   1.55669
 Alpha virt. eigenvalues --    1.57989   1.58419   1.59609   1.60820   1.62525
 Alpha virt. eigenvalues --    1.67477   1.68409   1.69383   1.70428   1.71783
 Alpha virt. eigenvalues --    1.74909   1.75324   1.75842   1.75944   1.77247
 Alpha virt. eigenvalues --    1.79736   1.80420   1.80919   1.81349   1.81442
 Alpha virt. eigenvalues --    1.84078   1.85315   1.89105   1.89266   1.89283
 Alpha virt. eigenvalues --    1.89553   1.90614   1.92977   1.94172   1.94506
 Alpha virt. eigenvalues --    1.94703   1.96367   1.96759   1.96772   1.97307
 Alpha virt. eigenvalues --    1.98589   1.98626   2.01557   2.02311   2.03178
 Alpha virt. eigenvalues --    2.03783   2.07337   2.08520   2.09554   2.09559
 Alpha virt. eigenvalues --    2.10076   2.10556   2.11031   2.11889   2.12564
 Alpha virt. eigenvalues --    2.13303   2.15783   2.15806   2.16271   2.16594
 Alpha virt. eigenvalues --    2.18653   2.20989   2.25107   2.28547   2.29447
 Alpha virt. eigenvalues --    2.29649   2.30559   2.31134   2.31444   2.31591
 Alpha virt. eigenvalues --    2.33579   2.33594   2.33873   2.33984   2.36040
 Alpha virt. eigenvalues --    2.36747   2.38420   2.39875   2.40189   2.42832
 Alpha virt. eigenvalues --    2.43581   2.43859   2.44446   2.46123   2.46638
 Alpha virt. eigenvalues --    2.46860   2.47258   2.47381   2.48018   2.49847
 Alpha virt. eigenvalues --    2.51735   2.51790   2.51906   2.54341   2.54806
 Alpha virt. eigenvalues --    2.56054   2.56148   2.60340   2.60732   2.61208
 Alpha virt. eigenvalues --    2.61673   2.62511   2.63486   2.64282   2.65880
 Alpha virt. eigenvalues --    2.67509   2.68677   2.68769   2.69627   2.70005
 Alpha virt. eigenvalues --    2.71277   2.72484   2.73042   2.73828   2.76588
 Alpha virt. eigenvalues --    2.76590   2.77551   2.77938   2.78114   2.80030
 Alpha virt. eigenvalues --    2.81660   2.81929   2.83233   2.83283   2.83790
 Alpha virt. eigenvalues --    2.84170   2.86538   2.86645   2.87696   2.89580
 Alpha virt. eigenvalues --    2.89874   2.91448   2.93398   2.93632   2.94888
 Alpha virt. eigenvalues --    2.96592   2.98694   3.00307   3.05037   3.05136
 Alpha virt. eigenvalues --    3.16334   3.16399   3.23205   3.24660   3.26814
 Alpha virt. eigenvalues --    3.29800   3.30516   3.30555   3.30571   3.31500
 Alpha virt. eigenvalues --    3.33560   3.34081   3.36526   3.37711   3.41116
 Alpha virt. eigenvalues --    3.41284   3.41572   3.46555   3.46868   3.47663
 Alpha virt. eigenvalues --    3.47808   3.51696   3.55602   3.55898   3.72562
 Alpha virt. eigenvalues --    3.72926   4.23812   4.35848   4.41626   4.43238
 Alpha virt. eigenvalues --    4.44376   4.53129   4.62857   4.63384   4.68306
 Alpha virt. eigenvalues --    4.69751   4.70818   4.78530   4.81316   4.83117
 Alpha virt. eigenvalues --    4.84761   4.89457   4.98222   5.05477
          Condensed to atoms (all electrons):
               1          2          3          4          5          6
     1  C    5.008043   0.352759  -0.046831  -0.062365   0.367598  -0.038093
     2  C    0.352759   5.064022   0.352779  -0.071327  -0.071325  -0.003932
     3  C   -0.046831   0.352779   5.008074   0.367568  -0.062367   0.000470
     4  C   -0.062365  -0.071327   0.367568   4.987376   0.357415  -0.040367
     5  C    0.367598  -0.071325  -0.062367   0.357415   4.987316   0.360359
     6  C   -0.038093  -0.003932   0.000470  -0.040367   0.360359   4.967844
     7  C    0.003976   0.000024  -0.000021  -0.001038  -0.030156   0.339695
     8  C   -0.000071   0.000007  -0.000016   0.000479   0.001039  -0.030152
     9  C   -0.000016   0.000007  -0.000071   0.001039   0.000479  -0.001036
    10  C   -0.000021   0.000024   0.003975  -0.030158  -0.001037  -0.001003
    11  C    0.000469  -0.003931  -0.038084   0.360357  -0.040361  -0.006261
    12  C    0.000001   0.000000  -0.000000  -0.000016  -0.000071   0.003974
    13  C    0.000000  -0.000000   0.000000   0.000007   0.000007   0.000024
    14  C   -0.000000   0.000000   0.000001  -0.000071  -0.000016  -0.000021
    15  C   -0.000000   0.000000  -0.000000   0.000001  -0.000000  -0.000025
    16  C   -0.000000   0.000000  -0.000000  -0.000000   0.000001  -0.000152
    17  C   -0.075657  -0.073369   0.382289  -0.029449  -0.029696   0.001192
    18  C    0.382289  -0.073350  -0.075656  -0.029708  -0.029465   0.003393
    19  H    0.375005  -0.038164   0.006482   0.006452  -0.039945  -0.005079
    20  H   -0.031202   0.369628  -0.031205   0.006053   0.006052  -0.000039
    21  H   -0.038870   0.367023  -0.038869  -0.002690  -0.002694  -0.000434
    22  H    0.006483  -0.038169   0.375001  -0.039943   0.006451  -0.000106
    23  H    0.003064   0.007091  -0.044489   0.376793  -0.034315   0.003908
    24  H   -0.044487   0.007091   0.003064  -0.034316   0.376802  -0.047663
    25  H   -0.007208  -0.000287   0.000024   0.005147  -0.035348   0.370985
    26  H   -0.002590   0.001329   0.000391  -0.007948  -0.032673   0.381353
    27  H    0.000372  -0.000016  -0.000013   0.001118  -0.007114  -0.043681
    28  H   -0.000261   0.000004  -0.000000  -0.000109   0.002242  -0.034130
    29  H    0.000006  -0.000004   0.000001   0.000012   0.000257  -0.007535
    30  H    0.000001  -0.000004   0.000006   0.000257   0.000012  -0.000009
    31  H   -0.000000   0.000004  -0.000261   0.002242  -0.000109   0.000018
    32  H   -0.000013  -0.000016   0.000372  -0.007114   0.001118  -0.000049
    33  H    0.000392   0.001330  -0.002591  -0.032680  -0.007949   0.000709
    34  H    0.000024  -0.000288  -0.007207  -0.035346   0.005147   0.000162
    35  H    0.000000  -0.000000  -0.000000  -0.000001  -0.000003   0.000122
    36  H   -0.000000   0.000000  -0.000000  -0.000008  -0.000008  -0.000007
    37  H    0.000000  -0.000000   0.000000  -0.000000  -0.000000   0.000001
    38  H   -0.000000  -0.000000   0.000000  -0.000003  -0.000001   0.000003
    39  H   -0.000000  -0.000000   0.000000   0.000000   0.000000  -0.000000
    40  H    0.000000  -0.000000  -0.000000   0.000000   0.000000   0.000002
    41  H    0.006610   0.005215  -0.043167   0.000836  -0.000044   0.000011
    42  H   -0.043164   0.005216   0.006611  -0.000044   0.000835  -0.000153
               7          8          9         10         11         12
     1  C    0.003976  -0.000071  -0.000016  -0.000021   0.000469   0.000001
     2  C    0.000024   0.000007   0.000007   0.000024  -0.003931   0.000000
     3  C   -0.000021  -0.000016  -0.000071   0.003975  -0.038084  -0.000000
     4  C   -0.001038   0.000479   0.001039  -0.030158   0.360357  -0.000016
     5  C   -0.030156   0.001039   0.000479  -0.001037  -0.040361  -0.000071
     6  C    0.339695  -0.030152  -0.001036  -0.001003  -0.006261   0.003974
     7  C    4.967829   0.360352  -0.040361  -0.006260  -0.001003  -0.038083
     8  C    0.360352   4.987367   0.357407  -0.040363  -0.001037   0.367594
     9  C   -0.040361   0.357407   4.987289   0.360361  -0.030155  -0.062363
    10  C   -0.006260  -0.040363   0.360361   4.967846   0.339693   0.000469
    11  C   -0.001003  -0.001037  -0.030155   0.339693   4.967820  -0.000021
    12  C   -0.038083   0.367594  -0.062363   0.000469  -0.000021   5.008004
    13  C   -0.003930  -0.071326  -0.071314  -0.003931   0.000024   0.352772
    14  C    0.000470  -0.062373   0.367593  -0.038089   0.003975  -0.046817
    15  C    0.001192  -0.029707  -0.029457   0.003393  -0.000152  -0.075663
    16  C    0.003392  -0.029457  -0.029704   0.001192  -0.000025   0.382293
    17  C   -0.000025  -0.000000   0.000001  -0.000152   0.003391  -0.000000
    18  C   -0.000152   0.000001  -0.000000  -0.000025   0.001192  -0.000000
    19  H    0.000122  -0.000003  -0.000001   0.000003  -0.000106   0.000000
    20  H    0.000001  -0.000000  -0.000000   0.000001  -0.000039   0.000000
    21  H   -0.000007  -0.000008  -0.000008  -0.000007  -0.000436  -0.000000
    22  H    0.000003  -0.000001  -0.000003   0.000122  -0.005077  -0.000000
    23  H   -0.000009   0.000012   0.000257  -0.007536  -0.047662   0.000001
    24  H   -0.007536   0.000257   0.000012  -0.000009   0.003908   0.000006
    25  H   -0.034134   0.002242  -0.000109   0.000018   0.000162  -0.000261
    26  H   -0.043680  -0.007115   0.001118  -0.000049   0.000707   0.000372
    27  H    0.381362  -0.032674  -0.007947   0.000709  -0.000049  -0.002590
    28  H    0.370992  -0.035344   0.005147   0.000162   0.000018  -0.007205
    29  H   -0.047661   0.376792  -0.034314   0.003908  -0.000009  -0.044489
    30  H    0.003908  -0.034317   0.376802  -0.047665  -0.007536   0.003063
    31  H    0.000162   0.005147  -0.035345   0.370982  -0.034134   0.000024
    32  H    0.000707  -0.007947  -0.032672   0.381355  -0.043681   0.000391
    33  H   -0.000049   0.001118  -0.007113  -0.043680   0.381357  -0.000013
    34  H    0.000018  -0.000109   0.002241  -0.034132   0.370997  -0.000000
    35  H   -0.005078  -0.039948   0.006452  -0.000106   0.000003   0.375009
    36  H   -0.000436  -0.002690  -0.002690  -0.000435  -0.000007  -0.038870
    37  H   -0.000039   0.006052   0.006051  -0.000039   0.000001  -0.031203
    38  H   -0.000106   0.006453  -0.039948  -0.005079   0.000122   0.006481
    39  H    0.000011  -0.000044   0.000836  -0.000153   0.000002   0.006610
    40  H   -0.000153   0.000836  -0.000044   0.000011  -0.000000  -0.043162
    41  H   -0.000000   0.000000   0.000000   0.000002  -0.000153  -0.000000
    42  H    0.000002   0.000000   0.000000  -0.000000   0.000011   0.000000
              13         14         15         16         17         18
     1  C    0.000000  -0.000000  -0.000000  -0.000000  -0.075657   0.382289
     2  C   -0.000000   0.000000   0.000000   0.000000  -0.073369  -0.073350
     3  C    0.000000   0.000001  -0.000000  -0.000000   0.382289  -0.075656
     4  C    0.000007  -0.000071   0.000001  -0.000000  -0.029449  -0.029708
     5  C    0.000007  -0.000016  -0.000000   0.000001  -0.029696  -0.029465
     6  C    0.000024  -0.000021  -0.000025  -0.000152   0.001192   0.003393
     7  C   -0.003930   0.000470   0.001192   0.003392  -0.000025  -0.000152
     8  C   -0.071326  -0.062373  -0.029707  -0.029457  -0.000000   0.000001
     9  C   -0.071314   0.367593  -0.029457  -0.029704   0.000001  -0.000000
    10  C   -0.003931  -0.038089   0.003393   0.001192  -0.000152  -0.000025
    11  C    0.000024   0.003975  -0.000152  -0.000025   0.003391   0.001192
    12  C    0.352772  -0.046817  -0.075663   0.382293  -0.000000  -0.000000
    13  C    5.064069   0.352757  -0.073376  -0.073381   0.000000   0.000000
    14  C    0.352757   5.008077   0.382293  -0.075668  -0.000000  -0.000000
    15  C   -0.073376   0.382293   4.922088   0.663884   0.000000   0.000000
    16  C   -0.073381  -0.075668   0.663884   4.922122   0.000000   0.000000
    17  C    0.000000  -0.000000   0.000000   0.000000   4.922049   0.663884
    18  C    0.000000  -0.000000   0.000000   0.000000   0.663884   4.922090
    19  H   -0.000000  -0.000000  -0.000000  -0.000000   0.007910  -0.039574
    20  H   -0.000000   0.000000  -0.000000  -0.000000  -0.000817  -0.000818
    21  H    0.000000  -0.000000   0.000000   0.000000   0.007485   0.007483
    22  H   -0.000000   0.000000  -0.000000  -0.000000  -0.039576   0.007911
    23  H   -0.000004   0.000006   0.000000  -0.000000  -0.003886   0.000720
    24  H   -0.000004   0.000001  -0.000000   0.000000   0.000718  -0.003886
    25  H    0.000004  -0.000000   0.000001   0.000005  -0.000029   0.000402
    26  H   -0.000016  -0.000013  -0.000012  -0.000009  -0.000024   0.000015
    27  H    0.001330   0.000391  -0.000024   0.000015  -0.000012  -0.000009
    28  H   -0.000288   0.000024  -0.000029   0.000402   0.000001   0.000005
    29  H    0.007092   0.003064   0.000720  -0.003888  -0.000000   0.000000
    30  H    0.007091  -0.044491  -0.003888   0.000719   0.000000  -0.000000
    31  H   -0.000287  -0.007208   0.000402  -0.000029   0.000005   0.000001
    32  H    0.001329  -0.002590   0.000015  -0.000024  -0.000009  -0.000012
    33  H   -0.000016   0.000372  -0.000009  -0.000012   0.000015  -0.000024
    34  H    0.000004  -0.000261   0.000005   0.000001   0.000402  -0.000029
    35  H   -0.038169   0.006483   0.007911  -0.039580  -0.000000  -0.000000
    36  H    0.367001  -0.038870   0.007485   0.007486   0.000000   0.000000
    37  H    0.369644  -0.031197  -0.000815  -0.000817  -0.000000  -0.000000
    38  H   -0.038164   0.375002  -0.039575   0.007911  -0.000000  -0.000000
    39  H    0.005217  -0.043167   0.373968  -0.046327  -0.000000   0.000000
    40  H    0.005217   0.006609  -0.046322   0.373959   0.000000  -0.000000
    41  H   -0.000000   0.000000  -0.000000   0.000000   0.373983  -0.046330
    42  H   -0.000000  -0.000000   0.000000  -0.000000  -0.046331   0.373966
              19         20         21         22         23         24
     1  C    0.375005  -0.031202  -0.038870   0.006483   0.003064  -0.044487
     2  C   -0.038164   0.369628   0.367023  -0.038169   0.007091   0.007091
     3  C    0.006482  -0.031205  -0.038869   0.375001  -0.044489   0.003064
     4  C    0.006452   0.006053  -0.002690  -0.039943   0.376793  -0.034316
     5  C   -0.039945   0.006052  -0.002694   0.006451  -0.034315   0.376802
     6  C   -0.005079  -0.000039  -0.000434  -0.000106   0.003908  -0.047663
     7  C    0.000122   0.000001  -0.000007   0.000003  -0.000009  -0.007536
     8  C   -0.000003  -0.000000  -0.000008  -0.000001   0.000012   0.000257
     9  C   -0.000001  -0.000000  -0.000008  -0.000003   0.000257   0.000012
    10  C    0.000003   0.000001  -0.000007   0.000122  -0.007536  -0.000009
    11  C   -0.000106  -0.000039  -0.000436  -0.005077  -0.047662   0.003908
    12  C    0.000000   0.000000  -0.000000  -0.000000   0.000001   0.000006
    13  C   -0.000000  -0.000000   0.000000  -0.000000  -0.000004  -0.000004
    14  C   -0.000000   0.000000  -0.000000   0.000000   0.000006   0.000001
    15  C   -0.000000  -0.000000   0.000000  -0.000000   0.000000  -0.000000
    16  C   -0.000000  -0.000000   0.000000  -0.000000  -0.000000   0.000000
    17  C    0.007910  -0.000817   0.007485  -0.039576  -0.003886   0.000718
    18  C   -0.039574  -0.000818   0.007483   0.007911   0.000720  -0.003886
    19  H    0.664355  -0.001953  -0.001649  -0.000229  -0.000169   0.000745
    20  H   -0.001953   0.627519  -0.032314  -0.001953  -0.000207  -0.000207
    21  H   -0.001649  -0.032314   0.654478  -0.001650  -0.000022  -0.000022
    22  H   -0.000229  -0.001953  -0.001650   0.664372   0.000745  -0.000169
    23  H   -0.000169  -0.000207  -0.000022   0.000745   0.665429  -0.009492
    24  H    0.000745  -0.000207  -0.000022  -0.000169  -0.009492   0.665419
    25  H    0.005062  -0.000027   0.000133   0.000006  -0.000126  -0.002422
    26  H   -0.000188  -0.000059   0.002647  -0.000056  -0.000043   0.005468
    27  H    0.000022   0.000000   0.000001   0.000001  -0.000260   0.003351
    28  H   -0.000017  -0.000000   0.000001  -0.000000   0.000007   0.000808
    29  H    0.000001   0.000000  -0.000004   0.000000  -0.000001  -0.000002
    30  H    0.000000   0.000000  -0.000004   0.000001  -0.000002  -0.000001
    31  H   -0.000000  -0.000000   0.000001  -0.000017   0.000808   0.000007
    32  H    0.000001   0.000000   0.000001   0.000022   0.003352  -0.000260
    33  H   -0.000056  -0.000059   0.002648  -0.000188   0.005469  -0.000043
    34  H    0.000006  -0.000027   0.000133   0.005062  -0.002421  -0.000126
    35  H    0.000000   0.000000  -0.000000  -0.000000   0.000000   0.000001
    36  H   -0.000000   0.000000   0.000000  -0.000000  -0.000004  -0.000004
    37  H    0.000000   0.000000   0.000000   0.000000   0.000000   0.000000
    38  H   -0.000000   0.000000  -0.000000   0.000000   0.000001   0.000000
    39  H    0.000000   0.000000   0.000000  -0.000000  -0.000000  -0.000000
    40  H   -0.000000   0.000000   0.000000   0.000000  -0.000000  -0.000000
    41  H   -0.000167   0.000149  -0.000135  -0.003223   0.001431  -0.000023
    42  H   -0.003222   0.000149  -0.000135  -0.000167  -0.000023   0.001432
              25         26         27         28         29         30
     1  C   -0.007208  -0.002590   0.000372  -0.000261   0.000006   0.000001
     2  C   -0.000287   0.001329  -0.000016   0.000004  -0.000004  -0.000004
     3  C    0.000024   0.000391  -0.000013  -0.000000   0.000001   0.000006
     4  C    0.005147  -0.007948   0.001118  -0.000109   0.000012   0.000257
     5  C   -0.035348  -0.032673  -0.007114   0.002242   0.000257   0.000012
     6  C    0.370985   0.381353  -0.043681  -0.034130  -0.007535  -0.000009
     7  C   -0.034134  -0.043680   0.381362   0.370992  -0.047661   0.003908
     8  C    0.002242  -0.007115  -0.032674  -0.035344   0.376792  -0.034317
     9  C   -0.000109   0.001118  -0.007947   0.005147  -0.034314   0.376802
    10  C    0.000018  -0.000049   0.000709   0.000162   0.003908  -0.047665
    11  C    0.000162   0.000707  -0.000049   0.000018  -0.000009  -0.007536
    12  C   -0.000261   0.000372  -0.002590  -0.007205  -0.044489   0.003063
    13  C    0.000004  -0.000016   0.001330  -0.000288   0.007092   0.007091
    14  C   -0.000000  -0.000013   0.000391   0.000024   0.003064  -0.044491
    15  C    0.000001  -0.000012  -0.000024  -0.000029   0.000720  -0.003888
    16  C    0.000005  -0.000009   0.000015   0.000402  -0.003888   0.000719
    17  C   -0.000029  -0.000024  -0.000012   0.000001  -0.000000   0.000000
    18  C    0.000402   0.000015  -0.000009   0.000005   0.000000  -0.000000
    19  H    0.005062  -0.000188   0.000022  -0.000017   0.000001   0.000000
    20  H   -0.000027  -0.000059   0.000000  -0.000000   0.000000   0.000000
    21  H    0.000133   0.002647   0.000001   0.000001  -0.000004  -0.000004
    22  H    0.000006  -0.000056   0.000001  -0.000000   0.000000   0.000001
    23  H   -0.000126  -0.000043  -0.000260   0.000007  -0.000001  -0.000002
    24  H   -0.002422   0.005468   0.003351   0.000808  -0.000002  -0.000001
    25  H    0.658575  -0.039169   0.003743  -0.014406   0.000808   0.000007
    26  H   -0.039169   0.638550   0.003563   0.003743   0.003352  -0.000260
    27  H    0.003743   0.003563   0.638525  -0.039169   0.005468  -0.000043
    28  H   -0.014406   0.003743  -0.039169   0.658547  -0.002422  -0.000126
    29  H    0.000808   0.003352   0.005468  -0.002422   0.665428  -0.009492
    30  H    0.000007  -0.000260  -0.000043  -0.000126  -0.009492   0.665427
    31  H    0.000001  -0.000005  -0.000079  -0.000005  -0.000126  -0.002421
    32  H   -0.000005  -0.000018   0.001290  -0.000079  -0.000043   0.005468
    33  H   -0.000079   0.001291  -0.000018  -0.000005  -0.000260   0.003351
[...]
    29  H    0.006651   0.003232   0.000592  -0.004071  -0.000000   0.000000
    30  H    0.006651  -0.044054  -0.004071   0.000592   0.000000  -0.000000
    31  H   -0.000304  -0.007597   0.000390  -0.000023   0.000004   0.000001
    32  H    0.001328  -0.002648   0.000016  -0.000028  -0.000005  -0.000010
    33  H   -0.000013   0.000266  -0.000005  -0.000010   0.000016  -0.000028
    34  H    0.000003  -0.000207   0.000004   0.000001   0.000390  -0.000023
    35  H   -0.035004   0.005721   0.007474  -0.037453  -0.000000  -0.000000
    36  H    0.371174  -0.036678   0.006221   0.006221   0.000000   0.000000
    37  H    0.370823  -0.031236   0.000309   0.000309  -0.000000  -0.000000
    38  H   -0.035004   0.375064  -0.037453   0.007474  -0.000000  -0.000000
    39  H    0.004939  -0.044143   0.373197  -0.045246   0.000000   0.000000
    40  H    0.004939   0.006102  -0.045247   0.373197   0.000000   0.000000
    41  H   -0.000000   0.000000   0.000000   0.000000   0.373197  -0.045246
    42  H   -0.000000  -0.000000   0.000000   0.000000  -0.045247   0.373197
              19         20         21         22         23         24
     1  C    0.375064  -0.031236  -0.036678   0.005721   0.003232  -0.044054
     2  C   -0.035004   0.370823   0.371174  -0.035004   0.006651   0.006650
     3  C    0.005721  -0.031236  -0.036678   0.375064  -0.044054   0.003232
     4  C    0.006295   0.005894  -0.002846  -0.043203   0.376932  -0.034735
     5  C   -0.043203   0.005894  -0.002846   0.006295  -0.034735   0.376932
     6  C   -0.004773  -0.000032  -0.000156  -0.000094   0.003923  -0.050914
     7  C    0.000080   0.000001  -0.000030   0.000003   0.000042  -0.007711
     8  C   -0.000002  -0.000000  -0.000006  -0.000000   0.000009   0.000174
     9  C   -0.000000  -0.000000  -0.000006  -0.000002   0.000174   0.000009
    10  C    0.000003   0.000001  -0.000030   0.000080  -0.007711   0.000042
    11  C   -0.000094  -0.000032  -0.000156  -0.004773  -0.050914   0.003923
    12  C    0.000000   0.000000  -0.000000  -0.000000   0.000001   0.000005
    13  C   -0.000000  -0.000000  -0.000000  -0.000000  -0.000003  -0.000003
    14  C   -0.000000   0.000000  -0.000000   0.000000   0.000005   0.000001
    15  C   -0.000000  -0.000000   0.000000  -0.000000   0.000000  -0.000000
    16  C   -0.000000  -0.000000   0.000000  -0.000000  -0.000000   0.000000
    17  C    0.007474   0.000309   0.006221  -0.037453  -0.004071   0.000592
    18  C   -0.037453   0.000309   0.006221   0.007474   0.000592  -0.004071
    19  H    0.659894  -0.001730  -0.001303  -0.000202  -0.000175   0.000886
    20  H   -0.001730   0.621140  -0.033386  -0.001730  -0.000206  -0.000206
    21  H   -0.001303  -0.033386   0.641660  -0.001303   0.000022   0.000022
    22  H   -0.000202  -0.001730  -0.001303   0.659894   0.000886  -0.000175
    23  H   -0.000175  -0.000206   0.000022   0.000886   0.668106  -0.009541
    24  H    0.000886  -0.000206   0.000022  -0.000175  -0.009541   0.668106
    25  H    0.005776  -0.000024   0.000117   0.000006  -0.000139  -0.002488
    26  H   -0.000251  -0.000070   0.002666  -0.000060  -0.000045   0.006310
    27  H    0.000022   0.000000   0.000002   0.000001  -0.000264   0.003952
    28  H   -0.000013  -0.000000   0.000002  -0.000000   0.000006   0.000755
    29  H    0.000001   0.000000  -0.000002   0.000000  -0.000001   0.000001
    30  H    0.000000   0.000000  -0.000002   0.000001   0.000001  -0.000001
    31  H   -0.000000  -0.000000   0.000002  -0.000013   0.000755   0.000006
    32  H    0.000001   0.000000   0.000002   0.000022   0.003952  -0.000264
    33  H   -0.000060  -0.000070   0.002666  -0.000251   0.006310  -0.000045
    34  H    0.000006  -0.000024   0.000117   0.005776  -0.002488  -0.000139
    35  H   -0.000000   0.000000  -0.000000  -0.000000   0.000000   0.000001
    36  H   -0.000000   0.000000   0.000000  -0.000000  -0.000002  -0.000002
    37  H    0.000000   0.000000   0.000000   0.000000   0.000000   0.000000
    38  H   -0.000000   0.000000  -0.000000  -0.000000   0.000001   0.000000
    39  H    0.000000  -0.000000   0.000000  -0.000000  -0.000000  -0.000000
    40  H   -0.000000  -0.000000   0.000000   0.000000  -0.000000  -0.000000
    41  H   -0.000142   0.000036  -0.000129  -0.002729   0.001866  -0.000017
    42  H   -0.002729   0.000036  -0.000129  -0.000142  -0.000017   0.001866
              25         26         27         28         29         30
     1  C   -0.007597  -0.002648   0.000266  -0.000207   0.000005   0.000001
     2  C   -0.000304   0.001328  -0.000012   0.000003  -0.000003  -0.000003
     3  C    0.000004   0.000457  -0.000011  -0.000000   0.000001   0.000005
     4  C    0.005429  -0.008641   0.001085  -0.000111   0.000009   0.000174
     5  C   -0.037988  -0.035384  -0.007072   0.002094   0.000174   0.000009
     6  C    0.371802   0.381516  -0.047026  -0.032187  -0.007711   0.000042
     7  C   -0.032187  -0.047026   0.381516   0.371802  -0.050914   0.003923
     8  C    0.002094  -0.007072  -0.035384  -0.037988   0.376932  -0.034735
     9  C   -0.000111   0.001085  -0.008641   0.005429  -0.034735   0.376932
    10  C    0.000025  -0.000098   0.000819   0.000161   0.003923  -0.050914
    11  C    0.000161   0.000819  -0.000098   0.000025   0.000042  -0.007711
    12  C   -0.000207   0.000266  -0.002648  -0.007597  -0.044054   0.003232
    13  C    0.000003  -0.000012   0.001328  -0.000304   0.006651   0.006651
    14  C   -0.000000  -0.000011   0.000457   0.000004   0.003232  -0.044054
    15  C    0.000001  -0.000010  -0.000028  -0.000023   0.000592  -0.004071
    16  C    0.000004  -0.000005   0.000016   0.000390  -0.004071   0.000592
    17  C   -0.000023  -0.000028  -0.000010   0.000001  -0.000000   0.000000
    18  C    0.000390   0.000016  -0.000005   0.000004   0.000000  -0.000000
    19  H    0.005776  -0.000251   0.000022  -0.000013   0.000001   0.000000
    20  H   -0.000024  -0.000070   0.000000  -0.000000   0.000000   0.000000
    21  H    0.000117   0.002666   0.000002   0.000002  -0.000002  -0.000002
    22  H    0.000006  -0.000060   0.000001  -0.000000   0.000000   0.000001
    23  H   -0.000139  -0.000045  -0.000264   0.000006  -0.000001   0.000001
    24  H   -0.002488   0.006310   0.003952   0.000755   0.000001  -0.000001
    25  H    0.654809  -0.038547   0.003832  -0.013153   0.000755   0.000006
    26  H   -0.038547   0.642783   0.004129   0.003832   0.003952  -0.000264
    27  H    0.003832   0.004129   0.642784  -0.038547   0.006310  -0.000045
    28  H   -0.013153   0.003832  -0.038547   0.654809  -0.002488  -0.000139
    29  H    0.000755   0.003952   0.006310  -0.002488   0.668106  -0.009541
    30  H    0.000006  -0.000264  -0.000045  -0.000139  -0.009541   0.668106
    31  H    0.000001  -0.000005  -0.000100  -0.000006  -0.000139  -0.002488
    32  H   -0.000005  -0.000036   0.001413  -0.000100  -0.000045   0.006310
    33  H   -0.000100   0.001412  -0.000036  -0.000005  -0.000264   0.003952
    34  H   -0.000006  -0.000100  -0.000005   0.000001   0.000006   0.000755
    35  H   -0.000013   0.000022  -0.000251   0.005776   0.000886  -0.000175
    36  H    0.000002   0.000002   0.002666   0.000117   0.000022   0.000022
    37  H   -0.000000   0.000000  -0.000070  -0.000024  -0.000206  -0.000206
    38  H   -0.000000   0.000001  -0.000060   0.000006  -0.000175   0.000886
    39  H    0.000000  -0.000000  -0.000000  -0.000000  -0.000017   0.001866
    40  H   -0.000000   0.000000   0.000003  -0.000002   0.001866  -0.000017
    41  H   -0.000000  -0.000000  -0.000000   0.000000  -0.000000  -0.000000
    42  H   -0.000002   0.000003   0.000000  -0.000000  -0.000000  -0.000000
              31         32         33         34         35         36
     1  C   -0.000000  -0.000011   0.000457   0.000004   0.000000  -0.000000
     2  C    0.000003  -0.000012   0.001328  -0.000304  -0.000000  -0.000000
     3  C   -0.000207   0.000266  -0.002648  -0.007597  -0.000000  -0.000000
     4  C    0.002094  -0.007072  -0.035384  -0.037988  -0.000000  -0.000006
     5  C   -0.000111   0.001085  -0.008641   0.005429  -0.000002  -0.000006
     6  C    0.000025  -0.000098   0.000819   0.000161   0.000080  -0.000030
     7  C    0.000161   0.000819  -0.000098   0.000025  -0.004774  -0.000156
     8  C    0.005429  -0.008641   0.001085  -0.000111  -0.043203  -0.002846
     9  C   -0.037988  -0.035384  -0.007072   0.002094   0.006295  -0.002846
    10  C    0.371802   0.381516  -0.047026  -0.032187  -0.000094  -0.000156
    11  C   -0.032187  -0.047026   0.381516   0.371802   0.000003  -0.000030
    12  C    0.000004   0.000457  -0.000011  -0.000000   0.375064  -0.036678
    13  C   -0.000304   0.001328  -0.000013   0.000003  -0.035004   0.371174
    14  C   -0.007597  -0.002648   0.000266  -0.000207   0.005721  -0.036678
    15  C    0.000390   0.000016  -0.000005   0.000004   0.007474   0.006221
    16  C   -0.000023  -0.000028  -0.000010   0.000001  -0.037453   0.006221
    17  C    0.000004  -0.000005   0.000016   0.000390  -0.000000   0.000000
    18  C    0.000001  -0.000010  -0.000028  -0.000023  -0.000000   0.000000
    19  H   -0.000000   0.000001  -0.000060   0.000006  -0.000000  -0.000000
    20  H   -0.000000   0.000000  -0.000070  -0.000024   0.000000   0.000000
    21  H    0.000002   0.000002   0.002666   0.000117  -0.000000   0.000000
    22  H   -0.000013   0.000022  -0.000251   0.005776  -0.000000  -0.000000
    23  H    0.000755   0.003952   0.006310  -0.002488   0.000000  -0.000002
    24  H    0.000006  -0.000264  -0.000045  -0.000139   0.000001  -0.000002
    25  H    0.000001  -0.000005  -0.000100  -0.000006  -0.000013   0.000002
    26  H   -0.000005  -0.000036   0.001412  -0.000100   0.000022   0.000002
    27  H   -0.000100   0.001413  -0.000036  -0.000005  -0.000251   0.002666
    28  H   -0.000006  -0.000100  -0.000005   0.000001   0.005776   0.000117
    29  H   -0.000139  -0.000045  -0.000264   0.000006   0.000886   0.000022
    30  H   -0.002488   0.006310   0.003952   0.000755  -0.000175   0.000022
    31  H    0.654809  -0.038547   0.003832  -0.013153   0.000006   0.000117
    32  H   -0.038547   0.642783   0.004129   0.003832  -0.000060   0.002666
    33  H    0.003832   0.004129   0.642783  -0.038547   0.000001   0.000002
    34  H   -0.013153   0.003832  -0.038547   0.654809  -0.000000   0.000002
    35  H    0.000006  -0.000060   0.000001  -0.000000   0.659894  -0.001303
    36  H    0.000117   0.002666   0.000002   0.000002  -0.001303   0.641660
    37  H   -0.000024  -0.000070   0.000000  -0.000000  -0.001730  -0.033386
    38  H    0.005776  -0.000251   0.000022  -0.000013  -0.000202  -0.001303
    39  H   -0.000002   0.000003   0.000000  -0.000000  -0.000142  -0.000129
    40  H   -0.000000  -0.000000  -0.000000   0.000000  -0.002729  -0.000129
    41  H   -0.000000   0.000000   0.000003  -0.000002   0.000000   0.000000
    42  H    0.000000  -0.000000  -0.000000  -0.000000  -0.000000   0.000000
              37         38         39         40         41         42
     1  C    0.000000  -0.000000  -0.000000   0.000000   0.006102  -0.044143
     2  C   -0.000000  -0.000000  -0.000000  -0.000000   0.004939   0.004939
     3  C    0.000000   0.000000   0.000000  -0.000000  -0.044143   0.006102
     4  C   -0.000000  -0.000002  -0.000000   0.000000   0.000254  -0.000131
     5  C   -0.000000  -0.000000   0.000000  -0.000000  -0.000131   0.000254
     6  C    0.000001   0.000003  -0.000000   0.000002   0.000011  -0.000147
     7  C   -0.000032  -0.000094   0.000011  -0.000147  -0.000000   0.000002
     8  C    0.005894   0.006295  -0.000131   0.000254   0.000000  -0.000000
     9  C    0.005894  -0.043203   0.000254  -0.000131  -0.000000   0.000000
    10  C   -0.000032  -0.004774  -0.000147   0.000011   0.000002  -0.000000
    11  C    0.000001   0.000080   0.000002  -0.000000  -0.000147   0.000011
    12  C   -0.031236   0.005721   0.006102  -0.044143  -0.000000   0.000000
    13  C    0.370823  -0.035004   0.004939   0.004939  -0.000000  -0.000000
    14  C   -0.031236   0.375064  -0.044143   0.006102   0.000000  -0.000000
    15  C    0.000309  -0.037453   0.373197  -0.045247   0.000000   0.000000
    16  C    0.000309   0.007474  -0.045246   0.373197   0.000000   0.000000
    17  C   -0.000000  -0.000000   0.000000   0.000000   0.373197  -0.045247
    18  C   -0.000000  -0.000000   0.000000   0.000000  -0.045246   0.373197
    19  H    0.000000  -0.000000   0.000000  -0.000000  -0.000142  -0.002729
    20  H    0.000000   0.000000  -0.000000  -0.000000   0.000036   0.000036
    21  H    0.000000  -0.000000   0.000000   0.000000  -0.000129  -0.000129
    22  H    0.000000  -0.000000  -0.000000   0.000000  -0.002729  -0.000142
    23  H    0.000000   0.000001  -0.000000  -0.000000   0.001866  -0.000017
    24  H    0.000000   0.000000  -0.000000  -0.000000  -0.000017   0.001866
    25  H   -0.000000  -0.000000   0.000000  -0.000000  -0.000000  -0.000002
    26  H    0.000000   0.000001  -0.000000   0.000000  -0.000000   0.000003
    27  H   -0.000070  -0.000060  -0.000000   0.000003  -0.000000   0.000000
    28  H   -0.000024   0.000006  -0.000000  -0.000002   0.000000  -0.000000
    29  H   -0.000206  -0.000175  -0.000017   0.001866  -0.000000  -0.000000
    30  H   -0.000206   0.000886   0.001866  -0.000017  -0.000000  -0.000000
    31  H   -0.000024   0.005776  -0.000002  -0.000000  -0.000000   0.000000
    32  H   -0.000070  -0.000251   0.000003  -0.000000   0.000000  -0.000000
    33  H    0.000000   0.000022   0.000000  -0.000000   0.000003  -0.000000
    34  H   -0.000000  -0.000013  -0.000000   0.000000  -0.000002  -0.000000
    35  H   -0.001730  -0.000202  -0.000142  -0.002729   0.000000  -0.000000
    36  H   -0.033386  -0.001303  -0.000129  -0.000129   0.000000   0.000000
    37  H    0.621140  -0.001730   0.000036   0.000036  -0.000000  -0.000000
    38  H   -0.001730   0.659894  -0.002729  -0.000142  -0.000000   0.000000
    39  H    0.000036  -0.002729   0.633164  -0.004593   0.000000  -0.000000
    40  H    0.000036  -0.000142  -0.004593   0.633164  -0.000000   0.000000
    41  H   -0.000000  -0.000000   0.000000  -0.000000   0.633164  -0.004593
    42  H   -0.000000   0.000000  -0.000000   0.000000  -0.004593   0.633164
 Mulliken charges:
               1
     1  C   -0.119592
     2  C   -0.165698
     3  C   -0.119592
     4  C   -0.049865
     5  C   -0.049865
     6  C   -0.176860
     7  C   -0.176859
     8  C   -0.049865
     9  C   -0.049865
    10  C   -0.176859
    11  C   -0.176859
    12  C   -0.119592
    13  C   -0.165698
    14  C   -0.119592
    15  C   -0.062916
    16  C   -0.062915
    17  C   -0.062915
    18  C   -0.062916
    19  H    0.065914
    20  H    0.095540
    21  H    0.084795
    22  H    0.065914
    23  H    0.080902
    24  H    0.080902
    25  H    0.087677
    26  H    0.089713
    27  H    0.089713
    28  H    0.087677
    29  H    0.080902
    30  H    0.080902
    31  H    0.087677
    32  H    0.089713
    33  H    0.089714
    34  H    0.087677
    35  H    0.065914
    36  H    0.084795
    37  H    0.095540
    38  H    0.065914
    39  H    0.077707
    40  H    0.077707
    41  H    0.077707
    42  H    0.077707
 Sum of Mulliken charges =  -0.00000
 Mulliken charges with hydrogens summed into heavy atoms:
               1
     1  C   -0.053678
     2  C    0.014637
     3  C   -0.053678
     4  C    0.031037
     5  C    0.031037
     6  C    0.000531
     7  C    0.000531
     8  C    0.031037
     9  C    0.031037
    10  C    0.000531
    11  C    0.000532
    12  C   -0.053678
    13  C    0.014637
    14  C   -0.053678
    15  C    0.014791
    16  C    0.014792
    17  C    0.014792
    18  C    0.014791
 Electronic spatial extent (au):  <R**2>=           5185.6305
 Charge=             -0.0000 electrons
 Dipole moment (field-independent basis, Debye):
    X=              0.0000    Y=             -0.0000    Z=              0.0000  Tot=              0.0000
 Quadrupole moment (field-independent basis, Debye-Ang):
   XX=           -114.7260   YY=           -106.5856   ZZ=           -109.3113
   XY=             -0.0000   XZ=             -2.3092   YZ=              0.0000
 Traceless Quadrupole moment (field-independent basis, Debye-Ang):
   XX=             -4.5184   YY=              3.6221   ZZ=              0.8963
   XY=             -0.0000   XZ=             -2.3092   YZ=              0.0000
 Octapole moment (field-independent basis, Debye-Ang**2):
  XXX=              0.0000  YYY=             -0.0000  ZZZ=             -0.0000  XYY=             -0.0000
  XXY=             -0.0001  XXZ=             -0.0000  XZZ=              0.0000  YZZ=              0.0000
  YYZ=             -0.0000  XYZ=             -0.0000
 Hexadecapole moment (field-independent basis, Debye-Ang**3):
 XXXX=          -5925.6543 YYYY=           -932.7483 ZZZZ=           -522.4727 XXXY=             -0.0003
 XXXZ=            -95.5857 YYYX=             -0.0000 YYYZ=             -0.0000 ZZZX=             -4.7113
 ZZZY=              0.0000 XXYY=          -1065.0561 XXZZ=          -1016.2920 YYZZ=           -245.5310
 XXYZ=              0.0001 YYXZ=            -14.0019 ZZXY=             -0.0001
 N-N= 1.366975722478D+03 E-N=-4.354210147286D+03  KE= 6.935347191879D+02
 Unable to Open any file for archive entry.
 1\1\GINC-HPCS04\FOpt\RB3LYP\6-31G(d,p)\C18H24\Z002445\09-Dec-2025\0\\#
  opt=(maxstep=5) B3LYP/6-31G** SCF=(XQC,MaxCycle=200,noincore) Int=(Gr
 id=UltraFine)\\m2g_monomer_chair\\0,1\C,3.1958653848,1.2476978287,-0.2
 231625238\C,3.2963981221,0.3118158712,-1.4490759784\C,3.2462522099,-0.
 9690601405,-0.5855441277\C,1.8665216889,-0.7865005995,0.1574677121\C,1
 .8309786289,0.7772770148,0.4131070837\C,0.6318862994,1.5607041373,-0.1
 498102624\C,-0.6992439542,1.4022811096,0.6341838401\C,-1.8665319073,0.
 7865100421,-0.1574725598\C,-1.8309879107,-0.7772675919,-0.4131125269\C
 ,-0.6318966729,-1.5606921111,0.1498093924\C,0.6992332671,-1.4022740542
 ,-0.6341863456\C,-3.2462613987,0.9690681407,0.5855401359\C,-3.29640625
 73,-0.3118100113,1.4490691301\C,-3.1958756189,-1.2476884238,0.22315292
 34\C,-4.303516371,-0.670889511,-0.6464829593\C,-4.3335543275,0.6506344
 838,-0.4304444657\C,4.3335430625,-0.6506229637,0.4304413299\C,4.303508
 7033,0.6709026199,0.6464715769\H,3.2435617178,2.3238111296,-0.40877814
 21\H,4.2394771068,0.4219570557,-1.9917004014\H,2.460537887,0.407423901
 8,-2.150148326\H,3.3401806098,-1.9269129808,-1.1036591892\H,1.91407157
 55,-1.3120058745,1.118295365\H,1.8621775975,0.9712030393,1.4915439553\
 H,0.913250417,2.6208787552,-0.1394779932\H,0.4733917772,1.3179910158,-
 1.2068368718\H,-0.5225207853,0.8430174452,1.5601044079\H,-1.0273175632
 ,2.3970620806,0.9597929288\H,-1.9140809597,1.312016618,-1.1182996166\H
 ,-1.8621840976,-0.9711935271,-1.4915495029\H,-0.913261451,-2.620866652
 ,0.1394841402\H,-0.4734021591,-1.3179716499,1.2068344843\H,0.522510303
 9,-0.8430141165,-1.5601090277\H,1.027305287,-2.3970567363,-0.959791692
 6\H,-3.340189485,1.926919473,1.1036580039\H,-2.4605449838,-0.407420037
 6,2.1501403608\H,-4.2394845235,-0.4219521246,1.9916942791\H,-3.2435731
 034,-2.32380225,0.4087655631\H,-4.8678416915,-1.2324110494,-1.38365311
 86\H,-4.9274945378,1.3920292244,-0.9546179183\H,4.9274825081,-1.392015
 6613,0.9546186915\H,4.8678356051,1.2324270799,1.3836382451\\Version=ES
 64L-G16RevC.02\State=1-A\HF=-700.3170369\RMSD=6.372e-09\RMSF=1.903e-05
 \Dipole=-0.0000005,0.0000004,0.0000002\Quadrupole=-3.2170237,2.6203131
 ,0.5967106,-0.4321273,1.8215023,0.384076\PG=C01 [X(C18H24)]\\@
 The archive entry for this job was punched.


 Experience is what you get when you don't get what you want.
 -- Dan Stanford
 Job cpu time:       0 days  0 hours 48 minutes 29.6 seconds.
 Elapsed time:       0 days  0 hours  1 minutes 42.6 seconds.
 File lengths (MBytes):  RWF=    101 Int=      0 D2E=      0 Chk=     15 Scr=      1
 Normal termination of Gaussian 16 at Tue Dec  9 15:54:24 2025.
