 Entering Gaussian System, Link 0=g16
 Input=ROMP_chair.com
 Output=ROMP_chair.log
 Initial command:
 /usr/local/gaussian16c02/g16/l1.exe "/scr/Gau-843521.inp" -scrdir="/scr/"
 Entering Link 1 = /usr/local/gaussian16c02/g16/l1.exe PID=    843522.
  
 Copyright (c) 1988-2021, Gaussian, Inc.  All Rights Reserved.
  
 This is part of the Gaussian(R) 16 program.  It is based on
 the Gaussian(R) 09 system (copyright 2009, Gaussian, Inc.),
 the Gaussian(R) 03 system (copyright 2003, Gaussian, Inc.),
 the Gaussian(R) 98 system (copyright 1998, Gaussian, Inc.),
 the Gaussian(R) 94 system (copyright 1995, Gaussian, Inc.),
 the Gaussian 92(TM) system (copyright 1992, Gaussian, Inc.),
 the Gaussian 90(TM) system (copyright 1990, Gaussian, Inc.),
 the Gaussian 88(TM) system (copyright 1988, Gaussian, Inc.),
 the Gaussian 86(TM) system (copyright 1986, Carnegie Mellon
 University), and the Gaussian 82(TM) system (copyright 1983,
 Carnegie Mellon University). Gaussian is a federally registered
 trademark of Gaussian, Inc.
  
 This software contains proprietary and confidential information,
 including trade secrets, belonging to Gaussian, Inc.
  
 This software is provided under written license and may be
 used, copied, transmitted, or stored only in accord with that
 written license.
  
 The following legend is applicable only to US Government
 contracts under FAR:
  
                    RESTRICTED RIGHTS LEGEND
  
 Use, reproduction and disclosure by the US Government is
 subject to restrictions as set forth in subparagraphs (a)
 and (c) of the Commercial Computer Software - Restricted
 Rights clause in FAR 52.227-19.
  
 Gaussian, Inc.
 340 Quinnipiac St., Bldg. 40, Wallingford CT 06492
  
  
 ---------------------------------------------------------------
 Warning -- This program may not be used in any manner that
 competes with the business of Gaussian, Inc. or will provide
 assistance to any competitor of Gaussian, Inc.  The licensee
 of this program is prohibited from giving any competitor of
 Gaussian, Inc. access to this program.  By using this program,
 the user acknowledges that Gaussian, Inc. is engaged in the
 business of creating and licensing software in the field of
 computational chemistry and represents and warrants to the
 licensee that it is not a competitor of Gaussian, Inc. and that
 it will not use this program in any manner prohibited above.
 ---------------------------------------------------------------
  

 Cite this work as:
 Gaussian 16, Revision C.02,
 M. J. Frisch, G. W. Trucks, H. B. Schlegel, G. E. Scuseria, 
 M. A. Robb, J. R. Cheeseman, G. Scalmani, V. Barone, 
 G. A. Petersson, H. Nakatsuji, X. Li, M. Caricato, A. V. Marenich, 
 J. Bloino, B. G. Janesko, R. Gomperts, B. Mennucci, H. P. Hratchian, 
 J. V. Ortiz, A. F. Izmaylov, J. L. Sonnenberg, D. Williams-Young, 
 F. Ding, F. Lipparini, F. Egidi, J. Goings, B. Peng, A. Petrone, 
 T. Henderson, D. Ranasinghe, V. G. Zakrzewski, J. Gao, N. Rega, 
 G. Zheng, W. Liang, M. Hada, M. Ehara, K. Toyota, R. Fukuda, 
 J. Hasegawa, M. Ishida, T. Nakajima, Y. Honda, O. Kitao, H. Nakai, 
 T. Vreven, K. Throssell, J. A. Montgomery, Jr., J. E. Peralta, 
 F. Ogliaro, M. J. Bearpark, J. J. Heyd, E. N. Brothers, K. N. Kudin, 
 V. N. Staroverov, T. A. Keith, R. Kobayashi, J. Normand, 
 K. Raghavachari, A. P. Rendell, J. C. Burant, S. S. Iyengar, 
 J. Tomasi, M. Cossi, J. M. Millam, M. Klene, C. Adamo, R. Cammi, 
 J. W. Ochterski, R. L. Martin, K. Morokuma, O. Farkas, 
 J. B. Foresman, and D. J. Fox, Gaussian, Inc., Wallingford CT, 2019.
 
 ******************************************
 Gaussian 16:  ES64L-G16RevC.02  7-Dec-2021
                 9-Dec-2025 
 ******************************************
 %chk=ROMP_chair
 %mem=4GB
 %nproc=32
 Will use up to   32 processors via shared memory.
 ----------------------------------------------------------------------
 # opt=(maxstep=5) B3LYP/6-31G** SCF=(XQC,MaxCycle=200,noincore) Int=(G
 rid=UltraFine)
 ----------------------------------------------------------------------
 1/8=5,18=20,19=15,26=4,38=1/1,3;
 2/9=110,12=2,17=6,18=5,40=1/2;
 3/5=1,6=6,7=101,11=2,25=1,30=1,71=1,74=-5,75=-5/1,2,3;
 4//1;
 5/5=4,7=200,8=3,13=1,38=5/2,8;
 6/7=2,8=2,9=2,10=2,28=1/1;
 7//1,2,3,16;
 1/8=5,18=20,19=15,26=4/3(2);
 2/9=110/2;
 99//99;
 2/9=110/2;
 3/5=1,6=6,7=101,11=2,25=1,30=1,71=1,74=-5,75=-5/1,2,3;
 4/5=5,16=3,69=1/1;
 5/5=4,7=200,8=3,13=1,38=5/2,8;
 7//1,2,3,16;
 1/8=5,18=20,19=15,26=4/3(-5);
 2/9=110/2;
 6/7=2,8=2,9=2,10=2,19=2,28=1/1;
 99/9=1/99;
 --------------
 m2g_ROMP_chair
 --------------
 Symbolic Z-matrix:
 Charge =  0 Multiplicity = 1
 C                    -4.9421    2.0906    1.8151 
 C                    -3.8183    2.1962    0.7842 
 C                    -2.9266    0.9345    0.7641 
 C                    -1.6419    1.1517   -0.0692 
 C                    -1.3642   -0.2039   -0.7623 
 C                    -0.5259   -1.1917    0.1105 
 C                     1.0067   -1.1109   -0.1324 
 C                     1.7889   -0.3437    0.9799 
 C                     2.0012    1.1565    0.6536 
 C                     0.8184    1.8928   -0.0193 
 C                    -0.4954    1.7513    0.7749 
 C                     3.2429   -0.8224    1.1895 
 C                     4.0397   -0.1213    0.0997 
 C                     3.3763    1.2564   -0.078 
 C                     3.3219    1.6781   -1.5684 
 C                     4.7163    1.8474   -2.174 
 C                     3.5201   -2.3416    1.2484 
 C                     2.696    -3.0407    2.3292 
 C                    -2.7988   -0.6855   -1.0726 
 C                    -3.6349   -0.283     0.1411 
 C                    -2.9627   -2.1694   -1.4747 
 C                    -4.3114   -2.4328   -2.1435 
 H                    -5.6184    1.2429    1.5794 
 H                    -5.5387    3.027     1.8089 
 H                    -4.5193    1.9485    2.8324 
 H                    -3.2015    3.083     1.0443 
 H                    -4.2554    2.3732   -0.223 
 H                    -2.6479    0.6758    1.8114 
 H                    -1.8631    1.8838   -0.8817 
 H                    -0.8501   -0.0431   -1.7357 
 H                    -0.7831   -1.0895    1.1858 
 H                    -0.804    -2.2328   -0.1373 
 H                     1.3539   -2.1583   -0.1769 
 H                     1.2448   -0.7089   -1.1385 
 H                     1.2609   -0.4556    1.9523 
 H                     2.1381    1.663     1.6385 
 H                     0.691     1.5608   -1.0683 
 H                     1.074     2.9739   -0.0732 
 H                    -0.3549    1.1689    1.708 
 H                    -0.8079    2.7635    1.1123 
 H                     3.5893   -0.4037    2.1645 
 H                     3.9778   -0.7177   -0.8382 
 H                     5.1083   -0.0186    0.3903 
 H                     3.9908    2.0136    0.4612 
 H                     2.8082    2.658    -1.6609 
 H                     2.7564    0.9296   -2.164 
 H                     4.624     2.2153   -3.2176 
 H                     5.2601    0.88     -2.1939 
 H                     5.3043    2.5867   -1.5897 
 H                     3.3594   -2.8321    0.2661 
 H                     4.595    -2.488     1.4927 
 H                     2.879    -2.5696    3.3182 
 H                     1.6125   -2.9895    2.096 
 H                     2.9908   -4.1097    2.3859 
 H                    -3.1519   -0.0707   -1.9347 
 H                    -4.6773   -0.0616   -0.1757 
 H                    -3.6649   -1.1098    0.885 
 H                    -2.1594   -2.4454   -2.1921 
 H                    -2.8865   -2.8319   -0.5859 
 H                    -4.3796   -3.5032   -2.431 
 H                    -5.1433   -2.2024   -1.4452 
 H                    -4.4179   -1.8143   -3.0599 
 

 GradGradGradGradGradGradGradGradGradGradGradGradGradGradGradGradGradGrad
 Berny optimization.
 Initialization pass.
                           ----------------------------
                           !    Initial Parameters    !
                           ! (Angstroms and Degrees)  !
 --------------------------                            --------------------------
 ! Name  Definition              Value          Derivative Info.                !
 --------------------------------------------------------------------------------
 ! R1    R(1,2)                  1.5287         estimate D2E/DX2                !
 ! R2    R(1,23)                 1.1097         estimate D2E/DX2                !
 ! R3    R(1,24)                 1.1103         estimate D2E/DX2                !
 ! R4    R(1,25)                 1.1108         estimate D2E/DX2                !
 ! R5    R(2,3)                  1.5451         estimate D2E/DX2                !
 ! R6    R(2,26)                 1.1111         estimate D2E/DX2                !
 ! R7    R(2,27)                 1.1121         estimate D2E/DX2                !
 ! R8    R(3,4)                  1.5466         estimate D2E/DX2                !
 ! R9    R(3,20)                 1.5402         estimate D2E/DX2                !
 ! R10   R(3,28)                 1.1142         estimate D2E/DX2                !
 ! R11   R(4,5)                  1.5476         estimate D2E/DX2                !
 ! R12   R(4,11)                 1.5448         estimate D2E/DX2                !
 ! R13   R(4,29)                 1.1158         estimate D2E/DX2                !
 ! R14   R(5,6)                  1.5621         estimate D2E/DX2                !
 ! R15   R(5,19)                 1.5448         estimate D2E/DX2                !
 ! R16   R(5,30)                 1.1125         estimate D2E/DX2                !
 ! R17   R(6,7)                  1.5538         estimate D2E/DX2                !
 ! R18   R(6,31)                 1.1103         estimate D2E/DX2                !
 ! R19   R(6,32)                 1.1057         estimate D2E/DX2                !
 ! R20   R(7,8)                  1.5613         estimate D2E/DX2                !
 ! R21   R(7,33)                 1.1043         estimate D2E/DX2                !
 ! R22   R(7,34)                 1.1093         estimate D2E/DX2                !
 ! R23   R(8,9)                  1.5499         estimate D2E/DX2                !
 ! R24   R(8,12)                 1.5451         estimate D2E/DX2                !
 ! R25   R(8,35)                 1.1121         estimate D2E/DX2                !
 ! R26   R(9,10)                 1.5472         estimate D2E/DX2                !
 ! R27   R(9,14)                 1.5608         estimate D2E/DX2                !
 ! R28   R(9,36)                 1.1159         estimate D2E/DX2                !
 ! R29   R(10,11)                1.5417         estimate D2E/DX2                !
 ! R30   R(10,37)                1.1076         estimate D2E/DX2                !
 ! R31   R(10,38)                1.1122         estimate D2E/DX2                !
 ! R32   R(11,39)                1.1089         estimate D2E/DX2                !
 ! R33   R(11,40)                1.1118         estimate D2E/DX2                !
 ! R34   R(12,13)                1.5212         estimate D2E/DX2                !
 ! R35   R(12,17)                1.5454         estimate D2E/DX2                !
 ! R36   R(12,41)                1.1162         estimate D2E/DX2                !
 ! R37   R(13,14)                1.5394         estimate D2E/DX2                !
 ! R38   R(13,42)                1.1132         estimate D2E/DX2                !
 ! R39   R(13,43)                1.1122         estimate D2E/DX2                !
 ! R40   R(14,15)                1.5499         estimate D2E/DX2                !
 ! R41   R(14,44)                1.1143         estimate D2E/DX2                !
 ! R42   R(15,16)                1.5296         estimate D2E/DX2                !
 ! R43   R(15,45)                1.1102         estimate D2E/DX2                !
 ! R44   R(15,46)                1.1112         estimate D2E/DX2                !
 ! R45   R(16,47)                1.1104         estimate D2E/DX2                !
 ! R46   R(16,48)                1.1099         estimate D2E/DX2                !
 ! R47   R(16,49)                1.1107         estimate D2E/DX2                !
 ! R48   R(17,18)                1.5284         estimate D2E/DX2                !
 ! R49   R(17,50)                1.1097         estimate D2E/DX2                !
 ! R50   R(17,51)                1.112          estimate D2E/DX2                !
 ! R51   R(18,52)                1.1107         estimate D2E/DX2                !
 ! R52   R(18,53)                1.1095         estimate D2E/DX2                !
 ! R53   R(18,54)                1.1104         estimate D2E/DX2                !
 ! R54   R(19,20)                1.5278         estimate D2E/DX2                !
 ! R55   R(19,21)                1.5461         estimate D2E/DX2                !
 ! R56   R(19,55)                1.1162         estimate D2E/DX2                !
 ! R57   R(20,56)                1.1117         estimate D2E/DX2                !
 ! R58   R(20,57)                1.1126         estimate D2E/DX2                !
 ! R59   R(21,22)                1.5283         estimate D2E/DX2                !
 ! R60   R(21,58)                1.1118         estimate D2E/DX2                !
 ! R61   R(21,59)                1.1112         estimate D2E/DX2                !
 ! R62   R(22,60)                1.1104         estimate D2E/DX2                !
 ! R63   R(22,61)                1.1103         estimate D2E/DX2                !
 ! R64   R(22,62)                1.1107         estimate D2E/DX2                !
 ! A1    A(2,1,23)             110.9498         estimate D2E/DX2                !
 ! A2    A(2,1,24)             109.4502         estimate D2E/DX2                !
 ! A3    A(2,1,25)             110.2817         estimate D2E/DX2                !
 ! A4    A(23,1,24)            108.3956         estimate D2E/DX2                !
 ! A5    A(23,1,25)            109.1935         estimate D2E/DX2                !
 ! A6    A(24,1,25)            108.5132         estimate D2E/DX2                !
 ! A7    A(1,2,3)              112.1246         estimate D2E/DX2                !
 ! A8    A(1,2,26)             107.7805         estimate D2E/DX2                !
 ! A9    A(1,2,27)             109.4393         estimate D2E/DX2                !
 ! A10   A(3,2,26)             109.5366         estimate D2E/DX2                !
 ! A11   A(3,2,27)             110.1816         estimate D2E/DX2                !
 ! A12   A(26,2,27)            107.6478         estimate D2E/DX2                !
 ! A13   A(2,3,4)              111.8209         estimate D2E/DX2                !
 ! A14   A(2,3,20)             112.6657         estimate D2E/DX2                !
 ! A15   A(2,3,28)             108.767          estimate D2E/DX2                !
 ! A16   A(4,3,20)             105.9666         estimate D2E/DX2                !
 ! A17   A(4,3,28)             109.346          estimate D2E/DX2                !
 ! A18   A(20,3,28)            108.1621         estimate D2E/DX2                !
 ! A19   A(3,4,5)              105.5056         estimate D2E/DX2                !
 ! A20   A(3,4,11)             112.1222         estimate D2E/DX2                !
 ! A21   A(3,4,29)             108.6508         estimate D2E/DX2                !
 ! A22   A(5,4,11)             116.8407         estimate D2E/DX2                !
 ! A23   A(5,4,29)             106.509          estimate D2E/DX2                !
 ! A24   A(11,4,29)            106.8782         estimate D2E/DX2                !
 ! A25   A(4,5,6)              113.575          estimate D2E/DX2                !
 ! A26   A(4,5,19)             101.3265         estimate D2E/DX2                !
 ! A27   A(4,5,30)             110.3751         estimate D2E/DX2                !
 ! A28   A(6,5,19)             114.4222         estimate D2E/DX2                !
 ! A29   A(6,5,30)             109.4068         estimate D2E/DX2                !
 ! A30   A(19,5,30)            107.3652         estimate D2E/DX2                !
 ! A31   A(5,6,7)              114.1471         estimate D2E/DX2                !
 ! A32   A(5,6,31)             111.0129         estimate D2E/DX2                !
 ! A33   A(5,6,32)             109.5846         estimate D2E/DX2                !
 ! A34   A(7,6,31)             112.0291         estimate D2E/DX2                !
 ! A35   A(7,6,32)             105.1888         estimate D2E/DX2                !
 ! A36   A(31,6,32)            104.2076         estimate D2E/DX2                !
 ! A37   A(6,7,8)              114.1002         estimate D2E/DX2                !
 ! A38   A(6,7,33)             105.4905         estimate D2E/DX2                !
 ! A39   A(6,7,34)             111.8596         estimate D2E/DX2                !
 ! A40   A(8,7,33)             109.7092         estimate D2E/DX2                !
 ! A41   A(8,7,34)             111.1332         estimate D2E/DX2                !
 ! A42   A(33,7,34)            103.8675         estimate D2E/DX2                !
 ! A43   A(7,8,9)              113.2206         estimate D2E/DX2                !
 ! A44   A(7,8,12)             114.5741         estimate D2E/DX2                !
 ! A45   A(7,8,35)             109.6096         estimate D2E/DX2                !
 ! A46   A(9,8,12)             101.5106         estimate D2E/DX2                !
 ! A47   A(9,8,35)             110.2734         estimate D2E/DX2                !
 ! A48   A(12,8,35)            107.277          estimate D2E/DX2                !
 ! A49   A(8,9,10)             116.5816         estimate D2E/DX2                !
 ! A50   A(8,9,14)             106.3388         estimate D2E/DX2                !
 ! A51   A(8,9,36)             105.6835         estimate D2E/DX2                !
 ! A52   A(10,9,14)            116.0522         estimate D2E/DX2                !
 ! A53   A(10,9,36)            105.1666         estimate D2E/DX2                !
 ! A54   A(14,9,36)            106.055          estimate D2E/DX2                !
 ! A55   A(9,10,11)            112.5653         estimate D2E/DX2                !
 ! A56   A(9,10,37)            110.9265         estimate D2E/DX2                !
 ! A57   A(9,10,38)            107.9365         estimate D2E/DX2                !
 ! A58   A(11,10,37)           111.2444         estimate D2E/DX2                !
 ! A59   A(11,10,38)           108.0604         estimate D2E/DX2                !
 ! A60   A(37,10,38)           105.7767         estimate D2E/DX2                !
 ! A61   A(4,11,10)            112.7426         estimate D2E/DX2                !
 ! A62   A(4,11,39)            110.4855         estimate D2E/DX2                !
 ! A63   A(4,11,40)            108.0946         estimate D2E/DX2                !
 ! A64   A(10,11,39)           111.945          estimate D2E/DX2                !
 ! A65   A(10,11,40)           108.1982         estimate D2E/DX2                !
 ! A66   A(39,11,40)           104.9762         estimate D2E/DX2                !
 ! A67   A(8,12,13)            104.6517         estimate D2E/DX2                !
 ! A68   A(8,12,17)            118.5903         estimate D2E/DX2                !
 ! A69   A(8,12,41)            107.117          estimate D2E/DX2                !
 ! A70   A(13,12,17)           112.7318         estimate D2E/DX2                !
 ! A71   A(13,12,41)           106.8782         estimate D2E/DX2                !
 ! A72   A(17,12,41)           106.2477         estimate D2E/DX2                !
 ! A73   A(12,13,14)           105.6311         estimate D2E/DX2                !
 ! A74   A(12,13,42)           109.1199         estimate D2E/DX2                !
 ! A75   A(12,13,43)           111.017          estimate D2E/DX2                !
 ! A76   A(14,13,42)           110.9936         estimate D2E/DX2                !
 ! A77   A(14,13,43)           111.1978         estimate D2E/DX2                !
 ! A78   A(42,13,43)           108.8475         estimate D2E/DX2                !
 ! A79   A(9,14,13)            105.5621         estimate D2E/DX2                !
 ! A80   A(9,14,15)            115.9279         estimate D2E/DX2                !
 ! A81   A(9,14,44)            107.6094         estimate D2E/DX2                !
 ! A82   A(13,14,15)           111.6935         estimate D2E/DX2                !
 ! A83   A(13,14,44)           108.3389         estimate D2E/DX2                !
 ! A84   A(15,14,44)           107.4447         estimate D2E/DX2                !
 ! A85   A(14,15,16)           112.2619         estimate D2E/DX2                !
 ! A86   A(14,15,45)           109.6639         estimate D2E/DX2                !
 ! A87   A(14,15,46)           110.4882         estimate D2E/DX2                !
 ! A88   A(16,15,45)           106.9246         estimate D2E/DX2                !
 ! A89   A(16,15,46)           109.042          estimate D2E/DX2                !
 ! A90   A(45,15,46)           108.3239         estimate D2E/DX2                !
 ! A91   A(15,16,47)           109.4506         estimate D2E/DX2                !
 ! A92   A(15,16,48)           110.9316         estimate D2E/DX2                !
 ! A93   A(15,16,49)           110.3638         estimate D2E/DX2                !
 ! A94   A(47,16,48)           108.2189         estimate D2E/DX2                !
 ! A95   A(47,16,49)           108.535          estimate D2E/DX2                !
 ! A96   A(48,16,49)           109.2802         estimate D2E/DX2                !
 ! A97   A(12,17,18)           112.3266         estimate D2E/DX2                !
 ! A98   A(12,17,50)           112.0132         estimate D2E/DX2                !
 ! A99   A(12,17,51)           108.1306         estimate D2E/DX2                !
 ! A100  A(18,17,50)           110.2254         estimate D2E/DX2                !
 ! A101  A(18,17,51)           107.796          estimate D2E/DX2                !
 ! A102  A(50,17,51)           106.038          estimate D2E/DX2                !
 ! A103  A(17,18,52)           110.2937         estimate D2E/DX2                !
 ! A104  A(17,18,53)           110.905          estimate D2E/DX2                !
 ! A105  A(17,18,54)           109.4707         estimate D2E/DX2                !
 ! A106  A(52,18,53)           109.1776         estimate D2E/DX2                !
 ! A107  A(52,18,54)           108.6116         estimate D2E/DX2                !
 ! A108  A(53,18,54)           108.3272         estimate D2E/DX2                !
 ! A109  A(5,19,20)            105.4575         estimate D2E/DX2                !
 ! A110  A(5,19,21)            116.7374         estimate D2E/DX2                !
 ! A111  A(5,19,55)            106.0938         estimate D2E/DX2                !
 ! A112  A(20,19,21)           113.6682         estimate D2E/DX2                !
 ! A113  A(20,19,55)           107.1781         estimate D2E/DX2                !
 ! A114  A(21,19,55)           107.1116         estimate D2E/DX2                !
 ! A115  A(3,20,19)            106.1363         estimate D2E/DX2                !
 ! A116  A(3,20,56)            112.8948         estimate D2E/DX2                !
 ! A117  A(3,20,57)            109.2313         estimate D2E/DX2                !
 ! A118  A(19,20,56)           109.8292         estimate D2E/DX2                !
 ! A119  A(19,20,57)           110.4956         estimate D2E/DX2                !
 ! A120  A(56,20,57)           108.2542         estimate D2E/DX2                !
 ! A121  A(19,21,22)           111.8867         estimate D2E/DX2                !
 ! A122  A(19,21,58)           109.2367         estimate D2E/DX2                !
 ! A123  A(19,21,59)           110.9119         estimate D2E/DX2                !
 ! A124  A(22,21,58)           108.2073         estimate D2E/DX2                !
 ! A125  A(22,21,59)           107.9267         estimate D2E/DX2                !
 ! A126  A(58,21,59)           108.5765         estimate D2E/DX2                !
 ! A127  A(21,22,60)           109.4897         estimate D2E/DX2                !
 ! A128  A(21,22,61)           110.5008         estimate D2E/DX2                !
 ! A129  A(21,22,62)           110.469          estimate D2E/DX2                !
 ! A130  A(60,22,61)           108.4724         estimate D2E/DX2                !
 ! A131  A(60,22,62)           108.4981         estimate D2E/DX2                !
 ! A132  A(61,22,62)           109.3604         estimate D2E/DX2                !
 ! D1    D(23,1,2,3)           -61.7505         estimate D2E/DX2                !
 ! D2    D(23,1,2,26)          177.6205         estimate D2E/DX2                !
 ! D3    D(23,1,2,27)           60.8255         estimate D2E/DX2                !
 ! D4    D(24,1,2,3)           178.6741         estimate D2E/DX2                !
 ! D5    D(24,1,2,26)           58.0451         estimate D2E/DX2                !
 ! D6    D(24,1,2,27)          -58.7499         estimate D2E/DX2                !
 ! D7    D(25,1,2,3)            59.3664         estimate D2E/DX2                !
 ! D8    D(25,1,2,26)          -61.2627         estimate D2E/DX2                !
 ! D9    D(25,1,2,27)         -178.0576         estimate D2E/DX2                !
 ! D10   D(1,2,3,4)           -168.8323         estimate D2E/DX2                !
 ! D11   D(1,2,3,20)            71.9378         estimate D2E/DX2                !
 ! D12   D(1,2,3,28)           -47.9735         estimate D2E/DX2                !
 ! D13   D(26,2,3,4)           -49.2256         estimate D2E/DX2                !
 ! D14   D(26,2,3,20)         -168.4555         estimate D2E/DX2                !
 ! D15   D(26,2,3,28)           71.6333         estimate D2E/DX2                !
 ! D16   D(27,2,3,4)            69.0136         estimate D2E/DX2                !
 ! D17   D(27,2,3,20)          -50.2163         estimate D2E/DX2                !
 ! D18   D(27,2,3,28)         -170.1276         estimate D2E/DX2                !
 ! D19   D(2,3,4,5)           -144.1683         estimate D2E/DX2                !
 ! D20   D(2,3,4,11)            87.6193         estimate D2E/DX2                !
 ! D21   D(2,3,4,29)           -30.2845         estimate D2E/DX2                !
 ! D22   D(20,3,4,5)           -21.0539         estimate D2E/DX2                !
 ! D23   D(20,3,4,11)         -149.2664         estimate D2E/DX2                !
 ! D24   D(20,3,4,29)           92.8298         estimate D2E/DX2                !
 ! D25   D(28,3,4,5)            95.3098         estimate D2E/DX2                !
 ! D26   D(28,3,4,11)          -32.9026         estimate D2E/DX2                !
 ! D27   D(28,3,4,29)         -150.8064         estimate D2E/DX2                !
 ! D28   D(2,3,20,19)          119.3292         estimate D2E/DX2                !
 ! D29   D(2,3,20,56)           -1.0361         estimate D2E/DX2                !
 ! D30   D(2,3,20,57)         -121.5294         estimate D2E/DX2                !
 ! D31   D(4,3,20,19)           -3.25           estimate D2E/DX2                !
 ! D32   D(4,3,20,56)         -123.6152         estimate D2E/DX2                !
 ! D33   D(4,3,20,57)          115.8914         estimate D2E/DX2                !
 ! D34   D(28,3,20,19)        -120.4109         estimate D2E/DX2                !
 ! D35   D(28,3,20,56)         119.2239         estimate D2E/DX2                !
 ! D36   D(28,3,20,57)          -1.2695         estimate D2E/DX2                !
 ! D37   D(3,4,5,6)            -86.6897         estimate D2E/DX2                !
 ! D38   D(3,4,5,19)            36.5041         estimate D2E/DX2                !
 ! D39   D(3,4,5,30)           150.0259         estimate D2E/DX2                !
 ! D40   D(11,4,5,6)            38.6471         estimate D2E/DX2                !
 ! D41   D(11,4,5,19)          161.841          estimate D2E/DX2                !
 ! D42   D(11,4,5,30)          -84.6373         estimate D2E/DX2                !
 ! D43   D(29,4,5,6)           157.9458         estimate D2E/DX2                !
 ! D44   D(29,4,5,19)          -78.8603         estimate D2E/DX2                !
 ! D45   D(29,4,5,30)           34.6615         estimate D2E/DX2                !
 ! D46   D(3,4,11,10)          176.4535         estimate D2E/DX2                !
 ! D47   D(3,4,11,39)           50.3545         estimate D2E/DX2                !
 ! D48   D(3,4,11,40)          -63.9941         estimate D2E/DX2                !
 ! D49   D(5,4,11,10)           54.5071         estimate D2E/DX2                !
 ! D50   D(5,4,11,39)          -71.5919         estimate D2E/DX2                !
 ! D51   D(5,4,11,40)          174.0594         estimate D2E/DX2                !
 ! D52   D(29,4,11,10)         -64.5935         estimate D2E/DX2                !
 ! D53   D(29,4,11,39)         169.3075         estimate D2E/DX2                !
 ! D54   D(29,4,11,40)          54.9588         estimate D2E/DX2                !
 ! D55   D(4,5,6,7)            -92.5928         estimate D2E/DX2                !
 ! D56   D(4,5,6,31)            35.18           estimate D2E/DX2                !
 ! D57   D(4,5,6,32)           149.7453         estimate D2E/DX2                !
 ! D58   D(19,5,6,7)           151.7179         estimate D2E/DX2                !
 ! D59   D(19,5,6,31)          -80.5093         estimate D2E/DX2                !
 ! D60   D(19,5,6,32)           34.0559         estimate D2E/DX2                !
 ! D61   D(30,5,6,7)            31.2199         estimate D2E/DX2                !
 ! D62   D(30,5,6,31)          158.9927         estimate D2E/DX2                !
 ! D63   D(30,5,6,32)          -86.442          estimate D2E/DX2                !
 ! D64   D(4,5,19,20)          -38.7454         estimate D2E/DX2                !
 ! D65   D(4,5,19,21)         -166.0227         estimate D2E/DX2                !
 ! D66   D(4,5,19,55)           74.752          estimate D2E/DX2                !
 ! D67   D(6,5,19,20)           83.8655         estimate D2E/DX2                !
 ! D68   D(6,5,19,21)          -43.4119         estimate D2E/DX2                !
 ! D69   D(6,5,19,55)         -162.6371         estimate D2E/DX2                !
 ! D70   D(30,5,19,20)        -154.5099         estimate D2E/DX2                !
 ! D71   D(30,5,19,21)          78.2127         estimate D2E/DX2                !
 ! D72   D(30,5,19,55)         -41.0125         estimate D2E/DX2                !
 ! D73   D(5,6,7,8)            103.1241         estimate D2E/DX2                !
 ! D74   D(5,6,7,33)          -136.3883         estimate D2E/DX2                !
 ! D75   D(5,6,7,34)           -24.1063         estimate D2E/DX2                !
 ! D76   D(31,6,7,8)           -24.1266         estimate D2E/DX2                !
 ! D77   D(31,6,7,33)           96.3609         estimate D2E/DX2                !
 ! D78   D(31,6,7,34)         -151.3571         estimate D2E/DX2                !
 ! D79   D(32,6,7,8)          -136.7205         estimate D2E/DX2                !
 ! D80   D(32,6,7,33)          -16.233          estimate D2E/DX2                !
 ! D81   D(32,6,7,34)           96.049          estimate D2E/DX2                !
 ! D82   D(6,7,8,9)            -93.9205         estimate D2E/DX2                !
 ! D83   D(6,7,8,12)           150.2971         estimate D2E/DX2                !
 ! D84   D(6,7,8,35)            29.66           estimate D2E/DX2                !
 ! D85   D(33,7,8,9)           147.9779         estimate D2E/DX2                !
 ! D86   D(33,7,8,12)           32.1955         estimate D2E/DX2                !
 ! D87   D(33,7,8,35)          -88.4416         estimate D2E/DX2                !
 ! D88   D(34,7,8,9)            33.6839         estimate D2E/DX2                !
 ! D89   D(34,7,8,12)          -82.0985         estimate D2E/DX2                !
 ! D90   D(34,7,8,35)          157.2644         estimate D2E/DX2                !
 ! D91   D(7,8,9,10)            39.3633         estimate D2E/DX2                !
 ! D92   D(7,8,9,14)           -91.8186         estimate D2E/DX2                !
 ! D93   D(7,8,9,36)           155.7451         estimate D2E/DX2                !
 ! D94   D(12,8,9,10)          162.6744         estimate D2E/DX2                !
 ! D95   D(12,8,9,14)           31.4925         estimate D2E/DX2                !
 ! D96   D(12,8,9,36)          -80.9438         estimate D2E/DX2                !
 ! D97   D(35,8,9,10)          -83.8519         estimate D2E/DX2                !
 ! D98   D(35,8,9,14)          144.9662         estimate D2E/DX2                !
 ! D99   D(35,8,9,36)           32.5299         estimate D2E/DX2                !
 ! D100  D(7,8,12,13)           81.7217         estimate D2E/DX2                !
 ! D101  D(7,8,12,17)          -44.9592         estimate D2E/DX2                !
 ! D102  D(7,8,12,41)         -165.0422         estimate D2E/DX2                !
 ! D103  D(9,8,12,13)          -40.6605         estimate D2E/DX2                !
 ! D104  D(9,8,12,17)         -167.3414         estimate D2E/DX2                !
 ! D105  D(9,8,12,41)           72.5756         estimate D2E/DX2                !
 ! D106  D(35,8,12,13)        -156.3605         estimate D2E/DX2                !
 ! D107  D(35,8,12,17)          76.9586         estimate D2E/DX2                !
 ! D108  D(35,8,12,41)         -43.1244         estimate D2E/DX2                !
 ! D109  D(8,9,10,11)           53.9724         estimate D2E/DX2                !
 ! D110  D(8,9,10,37)          -71.4079         estimate D2E/DX2                !
 ! D111  D(8,9,10,38)          173.1411         estimate D2E/DX2                !
 ! D112  D(14,9,10,11)        -179.5328         estimate D2E/DX2                !
 ! D113  D(14,9,10,37)          55.087          estimate D2E/DX2                !
 ! D114  D(14,9,10,38)         -60.364          estimate D2E/DX2                !
 ! D115  D(36,9,10,11)         -62.6952         estimate D2E/DX2                !
 ! D116  D(36,9,10,37)         171.9245         estimate D2E/DX2                !
 ! D117  D(36,9,10,38)          56.4735         estimate D2E/DX2                !
 ! D118  D(8,9,14,13)          -11.14           estimate D2E/DX2                !
 ! D119  D(8,9,14,15)          113.0576         estimate D2E/DX2                !
 ! D120  D(8,9,14,44)         -126.6749         estimate D2E/DX2                !
 ! D121  D(10,9,14,13)        -142.6196         estimate D2E/DX2                !
 ! D122  D(10,9,14,15)         -18.422          estimate D2E/DX2                !
 ! D123  D(10,9,14,44)         101.8455         estimate D2E/DX2                !
 ! D124  D(36,9,14,13)         101.0388         estimate D2E/DX2                !
 ! D125  D(36,9,14,15)        -134.7636         estimate D2E/DX2                !
 ! D126  D(36,9,14,44)         -14.4961         estimate D2E/DX2                !
 ! D127  D(9,10,11,4)         -123.651          estimate D2E/DX2                !
 ! D128  D(9,10,11,39)           1.6597         estimate D2E/DX2                !
 ! D129  D(9,10,11,40)         116.8566         estimate D2E/DX2                !
 ! D130  D(37,10,11,4)           1.5561         estimate D2E/DX2                !
 ! D131  D(37,10,11,39)        126.8668         estimate D2E/DX2                !
 ! D132  D(37,10,11,40)       -117.9363         estimate D2E/DX2                !
 ! D133  D(38,10,11,4)         117.2525         estimate D2E/DX2                !
 ! D134  D(38,10,11,39)       -117.4368         estimate D2E/DX2                !
 ! D135  D(38,10,11,40)         -2.2399         estimate D2E/DX2                !
 ! D136  D(8,12,13,14)          34.6291         estimate D2E/DX2                !
 ! D137  D(8,12,13,42)         -84.76           estimate D2E/DX2                !
 ! D138  D(8,12,13,43)         155.275          estimate D2E/DX2                !
 ! D139  D(17,12,13,14)        164.8562         estimate D2E/DX2                !
 ! D140  D(17,12,13,42)         45.4672         estimate D2E/DX2                !
 ! D141  D(17,12,13,43)        -74.4979         estimate D2E/DX2                !
 ! D142  D(41,12,13,14)        -78.7763         estimate D2E/DX2                !
 ! D143  D(41,12,13,42)        161.8346         estimate D2E/DX2                !
 ! D144  D(41,12,13,43)         41.8695         estimate D2E/DX2                !
 ! D145  D(8,12,17,18)         -56.2243         estimate D2E/DX2                !
 ! D146  D(8,12,17,50)          68.4669         estimate D2E/DX2                !
 ! D147  D(8,12,17,51)        -175.0489         estimate D2E/DX2                !
 ! D148  D(13,12,17,18)       -178.953          estimate D2E/DX2                !
 ! D149  D(13,12,17,50)        -54.2619         estimate D2E/DX2                !
 ! D150  D(13,12,17,51)         62.2224         estimate D2E/DX2                !
 ! D151  D(41,12,17,18)         64.3044         estimate D2E/DX2                !
 ! D152  D(41,12,17,50)       -171.0045         estimate D2E/DX2                !
 ! D153  D(41,12,17,51)        -54.5202         estimate D2E/DX2                !
 ! D154  D(12,13,14,9)         -14.278          estimate D2E/DX2                !
 ! D155  D(12,13,14,15)       -141.0951         estimate D2E/DX2                !
 ! D156  D(12,13,14,44)        100.756          estimate D2E/DX2                !
 ! D157  D(42,13,14,9)         103.865          estimate D2E/DX2                !
 ! D158  D(42,13,14,15)        -22.9522         estimate D2E/DX2                !
 ! D159  D(42,13,14,44)       -141.101          estimate D2E/DX2                !
 ! D160  D(43,13,14,9)        -134.8057         estimate D2E/DX2                !
 ! D161  D(43,13,14,15)         98.3771         estimate D2E/DX2                !
 ! D162  D(43,13,14,44)        -19.7718         estimate D2E/DX2                !
 ! D163  D(9,14,15,16)         175.8696         estimate D2E/DX2                !
 ! D164  D(9,14,15,45)          57.1633         estimate D2E/DX2                !
 ! D165  D(9,14,15,46)         -62.1722         estimate D2E/DX2                !
 ! D166  D(13,14,15,16)        -63.1693         estimate D2E/DX2                !
 ! D167  D(13,14,15,45)        178.1244         estimate D2E/DX2                !
 ! D168  D(13,14,15,46)         58.7889         estimate D2E/DX2                !
 ! D169  D(44,14,15,16)         55.5131         estimate D2E/DX2                !
 ! D170  D(44,14,15,45)        -63.1931         estimate D2E/DX2                !
 ! D171  D(44,14,15,46)        177.4713         estimate D2E/DX2                !
 ! D172  D(14,15,16,47)       -176.1774         estimate D2E/DX2                !
 ! D173  D(14,15,16,48)         64.4769         estimate D2E/DX2                !
 ! D174  D(14,15,16,49)        -56.7922         estimate D2E/DX2                !
 ! D175  D(45,15,16,47)        -55.8707         estimate D2E/DX2                !
 ! D176  D(45,15,16,48)       -175.2163         estimate D2E/DX2                !
 ! D177  D(45,15,16,49)         63.5145         estimate D2E/DX2                !
 ! D178  D(46,15,16,47)         61.0445         estimate D2E/DX2                !
 ! D179  D(46,15,16,48)        -58.3012         estimate D2E/DX2                !
 ! D180  D(46,15,16,49)       -179.5703         estimate D2E/DX2                !
 ! D181  D(12,17,18,52)        -55.9941         estimate D2E/DX2                !
 ! D182  D(12,17,18,53)         65.081          estimate D2E/DX2                !
 ! D183  D(12,17,18,54)       -175.4431         estimate D2E/DX2                !
 ! D184  D(50,17,18,52)        178.3351         estimate D2E/DX2                !
 ! D185  D(50,17,18,53)        -60.5897         estimate D2E/DX2                !
 ! D186  D(50,17,18,54)         58.8861         estimate D2E/DX2                !
 ! D187  D(51,17,18,52)         63.0268         estimate D2E/DX2                !
 ! D188  D(51,17,18,53)       -175.898          estimate D2E/DX2                !
 ! D189  D(51,17,18,54)        -56.4221         estimate D2E/DX2                !
 ! D190  D(5,19,20,3)           26.4612         estimate D2E/DX2                !
 ! D191  D(5,19,20,56)         148.795          estimate D2E/DX2                !
 ! D192  D(5,19,20,57)         -91.8467         estimate D2E/DX2                !
 ! D193  D(21,19,20,3)         155.5748         estimate D2E/DX2                !
 ! D194  D(21,19,20,56)        -82.0914         estimate D2E/DX2                !
 ! D195  D(21,19,20,57)         37.2668         estimate D2E/DX2                !
 ! D196  D(55,19,20,3)         -86.2772         estimate D2E/DX2                !
 ! D197  D(55,19,20,56)         36.0565         estimate D2E/DX2                !
 ! D198  D(55,19,20,57)        155.4148         estimate D2E/DX2                !
 ! D199  D(5,19,21,22)        -163.2342         estimate D2E/DX2                !
 ! D200  D(5,19,21,58)         -43.4442         estimate D2E/DX2                !
 ! D201  D(5,19,21,59)          76.1951         estimate D2E/DX2                !
 ! D202  D(20,19,21,22)         73.6287         estimate D2E/DX2                !
 ! D203  D(20,19,21,58)       -166.5813         estimate D2E/DX2                !
 ! D204  D(20,19,21,59)        -46.9419         estimate D2E/DX2                !
 ! D205  D(55,19,21,22)        -44.5576         estimate D2E/DX2                !
 ! D206  D(55,19,21,58)         75.2325         estimate D2E/DX2                !
 ! D207  D(55,19,21,59)       -165.1282         estimate D2E/DX2                !
 ! D208  D(19,21,22,60)        179.0176         estimate D2E/DX2                !
 ! D209  D(19,21,22,61)        -61.5655         estimate D2E/DX2                !
 ! D210  D(19,21,22,62)         59.5885         estimate D2E/DX2                !
 ! D211  D(58,21,22,60)         58.6254         estimate D2E/DX2                !
 ! D212  D(58,21,22,61)        178.0424         estimate D2E/DX2                !
 ! D213  D(58,21,22,62)        -60.8036         estimate D2E/DX2                !
 ! D214  D(59,21,22,60)        -58.6896         estimate D2E/DX2                !
 ! D215  D(59,21,22,61)         60.7273         estimate D2E/DX2                !
 ! D216  D(59,21,22,62)       -178.1186         estimate D2E/DX2                !
 --------------------------------------------------------------------------------
 Trust Radius=5.00D-02 FncErr=1.00D-07 GrdErr=1.00D-06 EigMax=2.50D+02 EigMin=1.00D-04
 Number of steps in this run=    372 maximum allowed number of steps=    372.
 GradGradGradGradGradGradGradGradGradGradGradGradGradGradGradGradGradGrad

 Stoichiometry    C22H40
 Framework group  C1[X(C22H40)]
 Deg. of freedom   180
 Full point group                 C1      NOp   1
 Largest Abelian subgroup         C1      NOp   1
 Largest concise Abelian subgroup C1      NOp   1
                         Standard orientation:                         
 ---------------------------------------------------------------------
 Center     Atomic      Atomic             Coordinates (Angstroms)
 Number     Number       Type             X           Y           Z
 ---------------------------------------------------------------------
      1          6           0       -4.973915   -1.907134   -1.920046
      2          6           0       -3.871571   -2.067694   -0.873198
      3          6           0       -2.959513   -0.823054   -0.792942
      4          6           0       -1.694471   -1.091091    0.055495
      5          6           0       -1.407283    0.234760    0.800344
      6          6           0       -0.536416    1.237461   -0.022125
      7          6           0        0.989798    1.121823    0.245626
      8          6           0        1.779843    0.380075   -0.878333
      9          6           0        1.960964   -1.133946   -0.600703
     10          6           0        0.753646   -1.872473    0.024524
     11          6           0       -0.542481   -1.680927   -0.788010
     12          6           0        3.245292    0.840504   -1.044664
     13          6           0        4.009714    0.088511    0.034345
     14          6           0        3.320240   -1.282822    0.151843
     15          6           0        3.230867   -1.754733    1.625408
     16          6           0        4.610645   -1.968940    2.249983
     17          6           0        3.548815    2.355810   -1.045542
     18          6           0        2.756900    3.105966   -2.116124
     19          6           0       -2.839232    0.730101    1.101113
     20          6           0       -3.659000    0.384276   -0.140871
     21          6           0       -2.985908    2.201843    1.551631
     22          6           0       -4.342345    2.465281    2.204581
     23          1           0       -5.640304   -1.056507   -1.667281
     24          1           0       -5.586041   -2.832729   -1.957324
     25          1           0       -4.529793   -1.737323   -2.923924
     26          1           0       -3.264857   -2.955520   -1.152788
     27          1           0       -4.330381   -2.271782    0.119112
     28          1           0       -2.656940   -0.533202   -1.825353
     29          1           0       -1.943042   -1.846876    0.837836
     30          1           0       -0.914288    0.031573    1.776732
     31          1           0       -0.775061    1.176919   -1.104830
     32          1           0       -0.801737    2.274038    0.256707
     33          1           0        1.353500    2.160899    0.332899
     34          1           0        1.202248    0.681261    1.241268
     35          1           0        1.272119    0.534604   -1.855678
     36          1           0        2.107865   -1.608425   -1.600003
     37          1           0        0.612133   -1.574742    1.081967
     38          1           0        0.990146   -2.959049    0.045355
     39          1           0       -0.374816   -1.069170   -1.697541
     40          1           0       -0.865412   -2.675315   -1.166100
     41          1           0        3.602903    0.449794   -2.027205
     42          1           0        3.940169    0.653149    0.991177
     43          1           0        5.081720   -0.022562   -0.240188
     44          1           0        3.932051   -2.031467   -0.402158
     45          1           0        2.699271   -2.728211    1.674355
     46          1           0        2.666838   -1.017577    2.236353
     47          1           0        4.492664   -2.371007    3.278280
     48          1           0        5.170014   -1.012356    2.313461
     49          1           0        5.197109   -2.697683    1.651060
     50          1           0        3.377905    2.814802   -0.049830
     51          1           0        4.630399    2.491943   -1.265016
     52          1           0        2.950552    2.666205   -3.117450
     53          1           0        1.668512    3.065494   -1.904581
     54          1           0        3.070477    4.171027   -2.130172
     55          1           0       -3.218638    0.092097    1.934706
     56          1           0       -4.710704    0.170133    0.149024
     57          1           0       -3.661260    1.236667   -0.855931
     58          1           0       -2.191724    2.438968    2.292694
     59          1           0       -2.882019    2.893223    0.687989
     60          1           0       -4.398088    3.526134    2.527919
     61          1           0       -5.164718    2.273557    1.483673
     62          1           0       -4.476309    1.817439    3.096785
 ---------------------------------------------------------------------
 Rotational constants (GHZ):           0.3773829           0.1496621           0.1348329
 Standard basis: 6-31G(d,p) (6D, 7F)
 There are   530 symmetry adapted cartesian basis functions of A   symmetry.
 There are   530 symmetry adapted basis functions of A   symmetry.
   530 basis functions,   896 primitive gaussians,   530 cartesian basis functions
    86 alpha electrons       86 beta electrons
       nuclear repulsion energy      2001.8877441292 Hartrees.
 NAtoms=   62 NActive=   62 NUniq=   62 SFac= 1.00D+00 NAtFMM=   60 NAOKFM=T Big=T
 Integral buffers will be    131072 words long.
 Raffenetti 2 integral format.
 Two-electron integral symmetry is turned on.
 One-electron integrals computed using PRISM.
 NBasis=   530 RedAO= T EigKep=  1.58D-03  NBF=   530
 NBsUse=   530 1.00D-06 EigRej= -1.00D+00 NBFU=   530
 ExpMin= 1.61D-01 ExpMax= 3.05D+03 ExpMxC= 4.57D+02 IAcc=3 IRadAn=         5 AccDes= 0.00D+00
 Harris functional with IExCor=  402 and IRadAn=       5 diagonalized for initial guess.
 HarFok:  IExCor=  402 AccDes= 0.00D+00 IRadAn=         5 IDoV= 1 UseB2=F ITyADJ=14
 ICtDFT=  3500011 ScaDFX=  1.000000  1.000000  1.000000  1.000000
 FoFCou: FMM=F IPFlag=           0 FMFlag=      100000 FMFlg1=        2001
         NFxFlg=           0 DoJE=T BraDBF=F KetDBF=T FulRan=T
         wScrn=  0.000000 ICntrl=       500 IOpCl=  0 I1Cent=   200000004 NGrid=           0
         NMat0=    1 NMatS0=      1 NMatT0=    0 NMatD0=    1 NMtDS0=    0 NMtDT0=    0
 Petite list used in FoFCou.
 Requested convergence on RMS density matrix=1.00D-08 within 128 cycles.
 Requested convergence on MAX density matrix=1.00D-06.
 Requested convergence on             energy=1.00D-06.
 No special actions if energy rises.
 Integral accuracy reduced to 1.0D-05 until final iterations.
 Initial convergence to 1.0D-05 achieved.  Increase integral accuracy.
 SCF Done:  E(RB3LYP) =  -862.489458038     A.U. after   12 cycles
            NFock= 12  Conv=0.53D-08     -V/T= 2.0107
 QCSCF skips out because SCF is already converged.

 **********************************************************************

            Population analysis using the SCF Density.

 **********************************************************************

 Orbital symmetries:
       Occupied  (A) (A) (A) (A) (A) (A) (A) (A) (A) (A) (A) (A)
                 (A) (A) (A) (A) (A) (A) (A) (A) (A) (A) (A) (A)
                 (A) (A) (A) (A) (A) (A) (A) (A) (A) (A) (A) (A)
                 (A) (A) (A) (A) (A) (A) (A) (A) (A) (A) (A) (A)
                 (A) (A) (A) (A) (A) (A) (A) (A) (A) (A) (A) (A)
                 (A) (A) (A) (A) (A) (A) (A) (A) (A) (A) (A) (A)
                 (A) (A) (A) (A) (A) (A) (A) (A) (A) (A) (A) (A)
                 (A) (A)
       Virtual   (A) (A) (A) (A) (A) (A) (A) (A) (A) (A) (A) (A)
                 (A) (A) (A) (A) (A) (A) (A) (A) (A) (A) (A) (A)
                 (A) (A) (A) (A) (A) (A) (A) (A) (A) (A) (A) (A)
                 (A) (A) (A) (A) (A) (A) (A) (A) (A) (A) (A) (A)
                 (A) (A) (A) (A) (A) (A) (A) (A) (A) (A) (A) (A)
                 (A) (A) (A) (A) (A) (A) (A) (A) (A) (A) (A) (A)
                 (A) (A) (A) (A) (A) (A) (A) (A) (A) (A) (A) (A)
                 (A) (A) (A) (A) (A) (A) (A) (A) (A) (A) (A) (A)
                 (A) (A) (A) (A) (A) (A) (A) (A) (A) (A) (A) (A)
                 (A) (A) (A) (A) (A) (A) (A) (A) (A) (A) (A) (A)
                 (A) (A) (A) (A) (A) (A) (A) (A) (A) (A) (A) (A)
                 (A) (A) (A) (A) (A) (A) (A) (A) (A) (A) (A) (A)
                 (A) (A) (A) (A) (A) (A) (A) (A) (A) (A) (A) (A)
                 (A) (A) (A) (A) (A) (A) (A) (A) (A) (A) (A) (A)
                 (A) (A) (A) (A) (A) (A) (A) (A) (A) (A) (A) (A)
                 (A) (A) (A) (A) (A) (A) (A) (A) (A) (A) (A) (A)
                 (A) (A) (A) (A) (A) (A) (A) (A) (A) (A) (A) (A)
                 (A) (A) (A) (A) (A) (A) (A) (A) (A) (A) (A) (A)
                 (A) (A) (A) (A) (A) (A) (A) (A) (A) (A) (A) (A)
                 (A) (A) (A) (A) (A) (A) (A) (A) (A) (A) (A) (A)
                 (A) (A) (A) (A) (A) (A) (A) (A) (A) (A) (A) (A)
                 (A) (A) (A) (A) (A) (A) (A) (A) (A) (A) (A) (A)
                 (A) (A) (A) (A) (A) (A) (A) (A) (A) (A) (A) (A)
                 (A) (A) (A) (A) (A) (A) (A) (A) (A) (A) (A) (A)
                 (A) (A) (A) (A) (A) (A) (A) (A) (A) (A) (A) (A)
                 (A) (A) (A) (A) (A) (A) (A) (A) (A) (A) (A) (A)
                 (A) (A) (A) (A) (A) (A) (A) (A) (A) (A) (A) (A)
                 (A) (A) (A) (A) (A) (A) (A) (A) (A) (A) (A) (A)
                 (A) (A) (A) (A) (A) (A) (A) (A) (A) (A) (A) (A)
                 (A) (A) (A) (A) (A) (A) (A) (A) (A) (A) (A) (A)
                 (A) (A) (A) (A) (A) (A) (A) (A) (A) (A) (A) (A)
                 (A) (A) (A) (A) (A) (A) (A) (A) (A) (A) (A) (A)
                 (A) (A) (A) (A) (A) (A) (A) (A) (A) (A) (A) (A)
                 (A) (A) (A) (A) (A) (A) (A) (A) (A) (A) (A) (A)
                 (A) (A) (A) (A) (A) (A) (A) (A) (A) (A) (A) (A)
                 (A) (A) (A) (A) (A) (A) (A) (A) (A) (A) (A) (A)
                 (A) (A) (A) (A) (A) (A) (A) (A) (A) (A) (A) (A)
 The electronic state is 1-A.
 Alpha  occ. eigenvalues --  -10.17718 -10.17684 -10.17677 -10.17605 -10.17588
 Alpha  occ. eigenvalues --  -10.17580 -10.17575 -10.17562 -10.17534 -10.17509
 Alpha  occ. eigenvalues --  -10.17492 -10.17489 -10.17481 -10.17462 -10.17379
 Alpha  occ. eigenvalues --  -10.17319 -10.17280 -10.17254 -10.17245 -10.17238
 Alpha  occ. eigenvalues --  -10.16897 -10.16798  -0.84958  -0.83951  -0.78246
 Alpha  occ. eigenvalues --   -0.77643  -0.77569  -0.74927  -0.74678  -0.72958
 Alpha  occ. eigenvalues --   -0.70413  -0.69005  -0.66708  -0.65476  -0.62204
 Alpha  occ. eigenvalues --   -0.61068  -0.60799  -0.59647  -0.57689  -0.56719
 Alpha  occ. eigenvalues --   -0.53596  -0.52917  -0.52263  -0.51099  -0.48207
 Alpha  occ. eigenvalues --   -0.47301  -0.46822  -0.45399  -0.44587  -0.44285
 Alpha  occ. eigenvalues --   -0.43137  -0.42524  -0.41797  -0.41461  -0.40907
 Alpha  occ. eigenvalues --   -0.40503  -0.40009  -0.39465  -0.38985  -0.38488
 Alpha  occ. eigenvalues --   -0.37990  -0.37476  -0.36949  -0.36051  -0.35729
 Alpha  occ. eigenvalues --   -0.35556  -0.35180  -0.34737  -0.34339  -0.34122
 Alpha  occ. eigenvalues --   -0.33805  -0.33626  -0.33252  -0.32919  -0.30579
 Alpha  occ. eigenvalues --   -0.30252  -0.30210  -0.30112  -0.29883  -0.29560
 Alpha  occ. eigenvalues --   -0.29330  -0.29223  -0.28807  -0.27994  -0.27581
 Alpha  occ. eigenvalues --   -0.27366
 Alpha virt. eigenvalues --    0.06376   0.07048   0.07923   0.09028   0.09853
 Alpha virt. eigenvalues --    0.09869   0.10522   0.10930   0.11911   0.12063
 Alpha virt. eigenvalues --    0.12544   0.12810   0.13159   0.13829   0.14110
 Alpha virt. eigenvalues --    0.14920   0.15093   0.15515   0.15843   0.16037
 Alpha virt. eigenvalues --    0.16502   0.16810   0.17126   0.17282   0.17427
 Alpha virt. eigenvalues --    0.17939   0.17988   0.18389   0.18831   0.19170
 Alpha virt. eigenvalues --    0.19338   0.19678   0.19727   0.20264   0.21211
 Alpha virt. eigenvalues --    0.21484   0.21854   0.22031   0.22536   0.22817
 Alpha virt. eigenvalues --    0.23299   0.23782   0.24187   0.24612   0.25214
 Alpha virt. eigenvalues --    0.25723   0.26588   0.26976   0.27177   0.27758
 Alpha virt. eigenvalues --    0.28284   0.29334   0.29559   0.29956   0.30538
 Alpha virt. eigenvalues --    0.31157   0.31778   0.32303   0.32829   0.33803
 Alpha virt. eigenvalues --    0.34158   0.35963   0.36944   0.37712   0.49009
 Alpha virt. eigenvalues --    0.50293   0.50799   0.50856   0.52468   0.52597
 Alpha virt. eigenvalues --    0.52904   0.53763   0.54047   0.54432   0.55353
 Alpha virt. eigenvalues --    0.55912   0.56351   0.57556   0.57712   0.58419
 Alpha virt. eigenvalues --    0.58905   0.59520   0.59663   0.60444   0.61515
 Alpha virt. eigenvalues --    0.61792   0.62596   0.62733   0.64097   0.64591
 Alpha virt. eigenvalues --    0.65291   0.65981   0.66499   0.66971   0.67181
 Alpha virt. eigenvalues --    0.68522   0.69136   0.69744   0.70235   0.71086
 Alpha virt. eigenvalues --    0.72553   0.73203   0.73759   0.74283   0.75505
 Alpha virt. eigenvalues --    0.75664   0.76329   0.77751   0.78654   0.79343
 Alpha virt. eigenvalues --    0.79801   0.80257   0.80438   0.80630   0.81099
 Alpha virt. eigenvalues --    0.81511   0.82985   0.83311   0.83916   0.84246
 Alpha virt. eigenvalues --    0.84670   0.85528   0.85725   0.86149   0.86311
 Alpha virt. eigenvalues --    0.86623   0.87053   0.87339   0.87435   0.87969
 Alpha virt. eigenvalues --    0.88391   0.88568   0.88905   0.89463   0.89732
 Alpha virt. eigenvalues --    0.90008   0.90545   0.91007   0.91927   0.92207
 Alpha virt. eigenvalues --    0.92370   0.92437   0.93124   0.93412   0.93938
 Alpha virt. eigenvalues --    0.94190   0.94336   0.94659   0.95132   0.95921
 Alpha virt. eigenvalues --    0.96324   0.97929   0.98060   0.98506   0.99388
 Alpha virt. eigenvalues --    1.00509   1.01104   1.02123   1.02336   1.04201
 Alpha virt. eigenvalues --    1.05312   1.05753   1.06781   1.09001   1.11374
 Alpha virt. eigenvalues --    1.12098   1.13478   1.13526   1.14120   1.18101
 Alpha virt. eigenvalues --    1.20667   1.21650   1.23825   1.25673   1.27079
 Alpha virt. eigenvalues --    1.30118   1.31012   1.33654   1.36785   1.37915
 Alpha virt. eigenvalues --    1.38477   1.41072   1.42561   1.44144   1.45155
 Alpha virt. eigenvalues --    1.46522   1.47330   1.48292   1.48741   1.51304
 Alpha virt. eigenvalues --    1.52634   1.54141   1.55013   1.55478   1.56751
 Alpha virt. eigenvalues --    1.59480   1.60372   1.60995   1.64053   1.64593
 Alpha virt. eigenvalues --    1.64953   1.66170   1.67233   1.67247   1.69523
 Alpha virt. eigenvalues --    1.70263   1.70528   1.71705   1.72849   1.73593
 Alpha virt. eigenvalues --    1.74503   1.75839   1.76508   1.77795   1.79020
 Alpha virt. eigenvalues --    1.79437   1.79963   1.80959   1.81412   1.82432
 Alpha virt. eigenvalues --    1.82967   1.84458   1.85460   1.85933   1.86051
 Alpha virt. eigenvalues --    1.86653   1.86857   1.88747   1.89499   1.89737
 Alpha virt. eigenvalues --    1.90133   1.90899   1.91331   1.92190   1.93379
 Alpha virt. eigenvalues --    1.93943   1.94982   1.95458   1.97080   1.97319
 Alpha virt. eigenvalues --    1.97754   1.99214   1.99989   2.00930   2.01579
 Alpha virt. eigenvalues --    2.02107   2.03120   2.03448   2.04235   2.04457
 Alpha virt. eigenvalues --    2.04591   2.05195   2.05251   2.05436   2.05827
 Alpha virt. eigenvalues --    2.06075   2.06256   2.07139   2.07557   2.07900
 Alpha virt. eigenvalues --    2.08292   2.08688   2.09090   2.09822   2.11318
 Alpha virt. eigenvalues --    2.11623   2.12433   2.13956   2.14293   2.14525
 Alpha virt. eigenvalues --    2.16638   2.17455   2.19636   2.19736   2.21384
 Alpha virt. eigenvalues --    2.22869   2.23504   2.24834   2.25361   2.25878
 Alpha virt. eigenvalues --    2.26832   2.26912   2.27380   2.28234   2.29294
 Alpha virt. eigenvalues --    2.29637   2.29710   2.30848   2.31366   2.31729
 Alpha virt. eigenvalues --    2.32650   2.33930   2.34652   2.35013   2.36149
 Alpha virt. eigenvalues --    2.37318   2.37986   2.38637   2.40402   2.41787
 Alpha virt. eigenvalues --    2.42696   2.43475   2.44143   2.44693   2.45334
 Alpha virt. eigenvalues --    2.46463   2.46919   2.47087   2.48332   2.48888
 Alpha virt. eigenvalues --    2.49585   2.50838   2.51121   2.52470   2.53145
 Alpha virt. eigenvalues --    2.54300   2.55435   2.55883   2.56662   2.57396
 Alpha virt. eigenvalues --    2.59450   2.59934   2.60254   2.61184   2.62360
 Alpha virt. eigenvalues --    2.64111   2.64852   2.65610   2.66536   2.67064
 Alpha virt. eigenvalues --    2.67430   2.67945   2.68370   2.68873   2.69874
 Alpha virt. eigenvalues --    2.70475   2.70906   2.71248   2.72066   2.72202
 Alpha virt. eigenvalues --    2.73133   2.73649   2.74357   2.75492   2.76060
 Alpha virt. eigenvalues --    2.76501   2.78005   2.78494   2.78682   2.79897
 Alpha virt. eigenvalues --    2.80397   2.80674   2.81411   2.82132   2.82708
 Alpha virt. eigenvalues --    2.83159   2.83660   2.84607   2.84892   2.86471
 Alpha virt. eigenvalues --    2.86864   2.87003   2.87753   2.87902   2.88737
 Alpha virt. eigenvalues --    2.89088   2.89556   2.89952   2.90269   2.90911
 Alpha virt. eigenvalues --    2.91542   2.91869   2.92960   2.93835   2.94001
 Alpha virt. eigenvalues --    2.94338   2.95581   2.98286   3.02493   3.05436
 Alpha virt. eigenvalues --    3.06468   3.07538   3.16644   3.17036   3.17483
 Alpha virt. eigenvalues --    3.18264   3.23912   3.25343   3.27043   3.28167
 Alpha virt. eigenvalues --    3.28688   3.29484   3.30480   3.31127   3.32182
 Alpha virt. eigenvalues --    3.32738   3.33088   3.33248   3.34465   3.35981
 Alpha virt. eigenvalues --    3.37997   3.39376   3.40772   3.41930   3.42590
 Alpha virt. eigenvalues --    3.42993   3.43760   3.44448   3.45901   3.46319
 Alpha virt. eigenvalues --    3.47001   3.47725   3.49163   3.49773   3.50776
 Alpha virt. eigenvalues --    3.52208   3.53166   3.53924   3.54549   3.54766
 Alpha virt. eigenvalues --    3.56190   3.57835   4.22511   4.29199   4.33242
 Alpha virt. eigenvalues --    4.35686   4.37095   4.43926   4.46225   4.47551
 Alpha virt. eigenvalues --    4.51044   4.54056   4.57437   4.62323   4.63696
 Alpha virt. eigenvalues --    4.65821   4.68092   4.71699   4.75769   4.81386
 Alpha virt. eigenvalues --    4.87304   4.89852   4.90663   4.97848
          Condensed to atoms (all electrons):
 Mulliken charges:
               1
     1  C   -0.315044
     2  C   -0.175853
     3  C   -0.044699
     4  C   -0.058709
     5  C   -0.072745
     6  C   -0.183333
     7  C   -0.183099
     8  C   -0.059624
     9  C   -0.066210
    10  C   -0.182375
    11  C   -0.183897
    12  C   -0.064782
    13  C   -0.180662
    14  C   -0.053142
    15  C   -0.174272
    16  C   -0.317542
    17  C   -0.173999
    18  C   -0.314896
    19  C   -0.053284
    20  C   -0.184173
    21  C   -0.173057
    22  C   -0.318466
    23  H    0.102899
    24  H    0.094949
    25  H    0.099037
    26  H    0.087387
    27  H    0.086313
    28  H    0.072559
    29  H    0.074440
    30  H    0.072204
    31  H    0.088005
    32  H    0.089906
    33  H    0.088062
    34  H    0.089510
    35  H    0.076707
    36  H    0.074624
    37  H    0.093394
    38  H    0.085221
    39  H    0.087514
    40  H    0.084828
    41  H    0.073163
    42  H    0.085390
    43  H    0.086767
    44  H    0.074609
    45  H    0.089182
    46  H    0.087616
    47  H    0.094568
    48  H    0.104488
    49  H    0.098242
    50  H    0.087478
    51  H    0.085598
    52  H    0.098532
    53  H    0.104885
    54  H    0.094088
    55  H    0.073894
    56  H    0.088211
    57  H    0.084926
    58  H    0.085480
    59  H    0.090731
    60  H    0.095266
    61  H    0.104245
    62  H    0.098943
 Sum of Mulliken charges =  -0.00000
 Mulliken charges with hydrogens summed into heavy atoms:
               1
     1  C   -0.018159
     2  C   -0.002152
     3  C    0.027860
     4  C    0.015732
     5  C   -0.000541
     6  C   -0.005422
     7  C   -0.005527
     8  C    0.017083
     9  C    0.008414
    10  C   -0.003760
    11  C   -0.011554
    12  C    0.008381
    13  C   -0.008505
    14  C    0.021467
    15  C    0.002527
    16  C   -0.020244
    17  C   -0.000923
    18  C   -0.017391
    19  C    0.020611
    20  C   -0.011036
    21  C    0.003153
    22  C   -0.020013
 Electronic spatial extent (au):  <R**2>=           9239.1936
 Charge=              0.0000 electrons
 Dipole moment (field-independent basis, Debye):
    X=              0.0607    Y=             -0.0298    Z=             -0.0190  Tot=              0.0703
 Quadrupole moment (field-independent basis, Debye-Ang):
   XX=           -146.1683   YY=           -143.3931   ZZ=           -143.1987
   XY=              0.2698   XZ=             -1.5482   YZ=              0.3065
 Traceless Quadrupole moment (field-independent basis, Debye-Ang):
   XX=             -1.9149   YY=              0.8603   ZZ=              1.0546
   XY=              0.2698   XZ=             -1.5482   YZ=              0.3065
 Octapole moment (field-independent basis, Debye-Ang**2):
  XXX=              5.8835  YYY=             -2.4673  ZZZ=              0.9187  XYY=              0.9943
  XXY=              0.0554  XXZ=             -5.2445  XZZ=              2.3167  YZZ=             -1.3070
  YYZ=              0.8640  XYZ=              6.7795
 Hexadecapole moment (field-independent basis, Debye-Ang**3):
 XXXX=          -8685.7745 YYYY=          -2696.6416 ZZZZ=          -1639.1648 XXXY=             26.4300
 XXXZ=            -69.8284 YYYX=             -0.6179 YYYZ=             13.5652 ZZZX=            -11.7585
 ZZZY=              0.7819 XXYY=          -1886.5873 XXZZ=          -1735.6442 YYZZ=           -739.5536
 XXYZ=             -9.3808 YYXZ=              2.2968 ZZXY=              4.0356
 N-N= 2.001887744129D+03 E-N=-5.996448567481D+03  KE= 8.533714043623D+02
 Calling FoFJK, ICntrl=      2127 FMM=T ISym2X=0 I1Cent= 0 IOpClX= 0 NMat=1 NMatS=1 NMatT=0.
 ***** Axes restored to original set *****
 -------------------------------------------------------------------
 Center     Atomic                   Forces (Hartrees/Bohr)
 Number     Number              X              Y              Z
 -------------------------------------------------------------------
      1        6          -0.006932379    0.004602634    0.002017748
      2        6           0.003932839    0.001936607    0.005420145
      3        6          -0.005176263    0.009390281    0.002399213
      4        6           0.006330777    0.008006923    0.000986444
      5        6           0.004268560   -0.004400880   -0.000234760
      6        6          -0.005094897   -0.004594783   -0.011085356
      7        6           0.005464638   -0.006649515    0.009313938
      8        6          -0.003426500   -0.005410246   -0.000240736
      9        6          -0.005162480    0.012190926    0.011090955
     10        6           0.009640814    0.006429909    0.000899351
     11        6          -0.007806985    0.007192389   -0.000415372
     12        6           0.009773413   -0.008877880    0.007196638
     13        6           0.012695938   -0.000750650   -0.003046014
     14        6           0.004690833    0.009880582   -0.007930552
     15        6          -0.001727183    0.006590493    0.003432261
     16        6           0.004098645   -0.000770887   -0.006204187
     17        6           0.004221111    0.002373408    0.003658829
     18        6          -0.001786983   -0.008329810    0.002073513
     19        6          -0.000981524   -0.007561968   -0.010823955
     20        6          -0.012203984   -0.007424449    0.005674186
     21        6           0.003803883    0.002787401   -0.003475300
     22        6          -0.005279734   -0.005463433   -0.002699559
     23        1           0.004756117    0.007287041    0.004709011
     24        1           0.002444470   -0.009378532    0.002897685
     25        1          -0.006019888    0.000527995   -0.008097677
     26        1          -0.003782709   -0.005834493   -0.004880524
     27        1           0.006000154   -0.001565502    0.006792321
     28        1          -0.001559281    0.005684891   -0.008335313
     29        1           0.000117982   -0.005654027    0.007046575
     30        1          -0.000340287   -0.003741543    0.010137269
     31        1           0.004763650    0.001625774   -0.008262084
     32        1          -0.002326688    0.008277174   -0.000486254
     33        1           0.001688151    0.006572019    0.002551916
     34        1          -0.004765007   -0.000718646    0.008423570
     35        1           0.000081124   -0.000035382   -0.011608676
     36        1          -0.001348867   -0.004681332   -0.007877338
     37        1          -0.000024689    0.002061560    0.009176186
     38        1          -0.000018087   -0.009735364   -0.002098728
     39        1          -0.000204826    0.002544267   -0.008636847
     40        1           0.000412036   -0.009196026   -0.001168879
     41        1          -0.005268057   -0.003176848   -0.006385484
     42        1           0.002921636    0.005840264    0.006584599
     43        1          -0.008578687   -0.004451529   -0.007159324
     44        1          -0.005375383   -0.004767987   -0.007068286
     45        1           0.000169910   -0.009663070   -0.000000748
     46        1           0.002378328    0.006710011    0.005218397
     47        1           0.004236422   -0.003104894    0.008606947
     48        1          -0.001859224    0.010156829   -0.000025487
     49        1          -0.002945972   -0.007167897   -0.006137052
     50        1           0.000491135    0.005489668    0.006248626
     51        1          -0.007277010    0.002034015   -0.004471828
     52        1          -0.003662491   -0.005399361   -0.007643916
     53        1           0.008830946   -0.001290071    0.005054759
     54        1          -0.005044478    0.008445944    0.002648893
     55        1           0.003668759   -0.005438646    0.006158300
     56        1           0.008009689   -0.002745832    0.007451328
     57        1          -0.003204498    0.005320847   -0.008374184
     58        1          -0.004491886    0.000155546    0.007759113
     59        1           0.003578564    0.006218202   -0.007200550
     60        1          -0.003062079    0.009710418    0.001184385
     61        1           0.005193327   -0.002232450   -0.008768833
     62        1          -0.001924849   -0.005830084    0.008030700
 -------------------------------------------------------------------
 Cartesian Forces:  Max     0.012695938 RMS     0.005881915

 GradGradGradGradGradGradGradGradGradGradGradGradGradGradGradGradGradGrad
 Berny optimization.
 FormGI is forming the generalized inverse of G from B-inverse, IUseBI=4.
 Internal  Forces:  Max     0.010821905 RMS     0.003664946
 Search for a local minimum.
 Step number   1 out of a maximum of  372
 All quantities printed in internal units (Hartrees-Bohrs-Radians)
 Mixed Optimization -- RFO/linear search
 Second derivative matrix not updated -- first step.
 ITU=  0
     Eigenvalues ---    0.00230   0.00230   0.00230   0.00230   0.00262
     Eigenvalues ---    0.00278   0.00371   0.00374   0.00387   0.00390
     Eigenvalues ---    0.00392   0.00443   0.00602   0.00666   0.00832
     Eigenvalues ---    0.01076   0.01736   0.01922   0.02182   0.02441
     Eigenvalues ---    0.02947   0.03212   0.03337   0.03362   0.03438
     Eigenvalues ---    0.03443   0.03506   0.03569   0.03575   0.03634
     Eigenvalues ---    0.03710   0.03755   0.03887   0.03950   0.04123
     Eigenvalues ---    0.04281   0.04292   0.04297   0.04428   0.04555
     Eigenvalues ---    0.04683   0.04718   0.04722   0.04820   0.04827
     Eigenvalues ---    0.04832   0.04837   0.04850   0.04951   0.05112
     Eigenvalues ---    0.05293   0.05390   0.05517   0.05571   0.05572
     Eigenvalues ---    0.05588   0.05596   0.05617   0.05642   0.05691
     Eigenvalues ---    0.05757   0.05765   0.05766   0.05772   0.06066
     Eigenvalues ---    0.06305   0.06611   0.06904   0.07166   0.07221
     Eigenvalues ---    0.07476   0.07801   0.08079   0.08124   0.08188
     Eigenvalues ---    0.08189   0.08284   0.08303   0.08369   0.08614
     Eigenvalues ---    0.08670   0.09539   0.11421   0.11755   0.12041
     Eigenvalues ---    0.12096   0.12100   0.12196   0.12369   0.12608
     Eigenvalues ---    0.12808   0.13083   0.14384   0.14905   0.15112
     Eigenvalues ---    0.16000   0.16000   0.16000   0.16000   0.16000
     Eigenvalues ---    0.16000   0.16000   0.16000   0.16000   0.16000
     Eigenvalues ---    0.16000   0.16000   0.17387   0.18406   0.18482
     Eigenvalues ---    0.18648   0.20773   0.21881   0.21938   0.21968
     Eigenvalues ---    0.21969   0.24270   0.24449   0.24812   0.25266
     Eigenvalues ---    0.25882   0.26220   0.26481   0.26978   0.27225
     Eigenvalues ---    0.27608   0.27663   0.27864   0.27894   0.27983
     Eigenvalues ---    0.28045   0.28069   0.28190   0.28268   0.28973
     Eigenvalues ---    0.29182   0.29458   0.29547   0.29572   0.29582
     Eigenvalues ---    0.31951   0.31954   0.31980   0.31991   0.32147
     Eigenvalues ---    0.32160   0.32265   0.32326   0.32336   0.32367
     Eigenvalues ---    0.32372   0.32374   0.32375   0.32390   0.32409
     Eigenvalues ---    0.32413   0.32416   0.32473   0.32477   0.32485
     Eigenvalues ---    0.32517   0.32523   0.32525   0.32531   0.32554
     Eigenvalues ---    0.32559   0.32563   0.32563   0.32566   0.32568
     Eigenvalues ---    0.32574   0.32606   0.32627   0.32637   0.32654
     Eigenvalues ---    0.32675   0.32719   0.32852   0.33057   0.33206
 RFO step:  Lambda=-2.29771606D-02 EMin= 2.30000000D-03
 Linear search not attempted -- first point.
 Maximum step size (   0.050) exceeded in Quadratic search.
    -- Step size scaled by   0.178
 Iteration  1 RMS(Cart)=  0.00707083 RMS(Int)=  0.00001276
 Iteration  2 RMS(Cart)=  0.00002535 RMS(Int)=  0.00000592
 Iteration  3 RMS(Cart)=  0.00000000 RMS(Int)=  0.00000592
 Variable       Old X    -DE/DX   Delta X   Delta X   Delta X     New X
                                 (Linear)    (Quad)   (Total)
    R1        2.88877   0.00505   0.00000   0.00282   0.00282   2.89159
    R2        2.09711  -0.00947   0.00000  -0.00482  -0.00482   2.09229
    R3        2.09820  -0.00924   0.00000  -0.00472  -0.00472   2.09349
    R4        2.09909  -0.00978   0.00000  -0.00500  -0.00500   2.09409
    R5        2.91987  -0.00209   0.00000  -0.00123  -0.00123   2.91864
    R6        2.09965  -0.00790   0.00000  -0.00404  -0.00404   2.09560
    R7        2.10162  -0.00876   0.00000  -0.00449  -0.00449   2.09713
    R8        2.92268   0.00625   0.00000   0.00367   0.00367   2.92635
    R9        2.91050   0.00946   0.00000   0.00565   0.00565   2.91615
   R10        2.10553  -0.00954   0.00000  -0.00493  -0.00493   2.10060
   R11        2.92460   0.00657   0.00000   0.00362   0.00361   2.92821
   R12        2.91930  -0.00216   0.00000  -0.00175  -0.00174   2.91756
   R13        2.10860  -0.00886   0.00000  -0.00460  -0.00460   2.10400
   R14        2.95201  -0.00708   0.00000  -0.00405  -0.00405   2.94796
   R15        2.91918   0.00652   0.00000   0.00369   0.00369   2.92288
   R16        2.10233  -0.00957   0.00000  -0.00492  -0.00492   2.09741
   R17        2.93632   0.00275   0.00000   0.00208   0.00207   2.93839
   R18        2.09825  -0.00896   0.00000  -0.00457  -0.00457   2.09368
   R19        2.08952  -0.00710   0.00000  -0.00357  -0.00357   2.08595
   R20        2.95042  -0.00612   0.00000  -0.00332  -0.00332   2.94710
   R21        2.08691  -0.00581   0.00000  -0.00291  -0.00291   2.08400
   R22        2.09626  -0.00892   0.00000  -0.00454  -0.00454   2.09172
   R23        2.92886   0.00628   0.00000   0.00394   0.00393   2.93279
   R24        2.91974   0.00545   0.00000   0.00289   0.00289   2.92262
   R25        2.10165  -0.01018   0.00000  -0.00523  -0.00523   2.09642
   R26        2.92386  -0.00344   0.00000  -0.00241  -0.00241   2.92145
   R27        2.94950   0.00849   0.00000   0.00535   0.00535   2.95484
   R28        2.10881  -0.00924   0.00000  -0.00480  -0.00480   2.10401
   R29        2.91340   0.00540   0.00000   0.00284   0.00285   2.91624
   R30        2.09313  -0.00931   0.00000  -0.00471  -0.00471   2.08842
   R31        2.10177  -0.00937   0.00000  -0.00481  -0.00481   2.09697
   R32        2.09547  -0.00863   0.00000  -0.00439  -0.00439   2.09109
   R33        2.10095  -0.00884   0.00000  -0.00453  -0.00453   2.09642
   R34        2.87468   0.01082   0.00000   0.00592   0.00593   2.88061
   R35        2.92039  -0.00374   0.00000  -0.00219  -0.00219   2.91820
   R36        2.10933  -0.00840   0.00000  -0.00437  -0.00437   2.10497
   R37        2.90903   0.00744   0.00000   0.00436   0.00436   2.91339
   R38        2.10361  -0.00884   0.00000  -0.00455  -0.00455   2.09906
   R39        2.10168  -0.01052   0.00000  -0.00540  -0.00540   2.09628
   R40        2.92882  -0.00411   0.00000  -0.00244  -0.00244   2.92638
   R41        2.10575  -0.00962   0.00000  -0.00497  -0.00497   2.10078
   R42        2.89058   0.00461   0.00000   0.00258   0.00258   2.89316
   R43        2.09806  -0.00861   0.00000  -0.00439  -0.00439   2.09367
   R44        2.09988  -0.00853   0.00000  -0.00436  -0.00436   2.09551
   R45        2.09834  -0.00947   0.00000  -0.00483  -0.00483   2.09350
   R46        2.09749  -0.00976   0.00000  -0.00498  -0.00498   2.09251
   R47        2.09897  -0.00956   0.00000  -0.00488  -0.00488   2.09409
   R48        2.88826   0.00541   0.00000   0.00302   0.00302   2.89128
   R49        2.09694  -0.00803   0.00000  -0.00409  -0.00409   2.09285
   R50        2.10136  -0.00828   0.00000  -0.00425  -0.00425   2.09711
   R51        2.09883  -0.00970   0.00000  -0.00496  -0.00496   2.09387
   R52        2.09664  -0.00975   0.00000  -0.00496  -0.00496   2.09168
   R53        2.09826  -0.00934   0.00000  -0.00476  -0.00476   2.09350
   R54        2.88710   0.01037   0.00000   0.00589   0.00589   2.89299
   R55        2.92176  -0.00355   0.00000  -0.00209  -0.00209   2.91967
   R56        2.10929  -0.00891   0.00000  -0.00463  -0.00463   2.10466
   R57        2.10089  -0.01018   0.00000  -0.00522  -0.00522   2.09568
   R58        2.10251  -0.00947   0.00000  -0.00487  -0.00487   2.09765
   R59        2.88805   0.00612   0.00000   0.00342   0.00342   2.89146
   R60        2.10102  -0.00829   0.00000  -0.00425  -0.00425   2.09677
   R61        2.09979  -0.00922   0.00000  -0.00472  -0.00472   2.09507
   R62        2.09842  -0.00948   0.00000  -0.00484  -0.00484   2.09358
   R63        2.09816  -0.00987   0.00000  -0.00504  -0.00504   2.09313
   R64        2.09893  -0.00969   0.00000  -0.00495  -0.00495   2.09398
    A1        1.93644   0.00237   0.00000   0.00209   0.00208   1.93852
    A2        1.91027   0.00526   0.00000   0.00559   0.00558   1.91584
    A3        1.92478   0.00191   0.00000   0.00159   0.00159   1.92637
    A4        1.89186  -0.00341   0.00000  -0.00281  -0.00282   1.88904
    A5        1.90579  -0.00316   0.00000  -0.00397  -0.00397   1.90182
    A6        1.89391  -0.00319   0.00000  -0.00268  -0.00269   1.89122
    A7        1.95694   0.00684   0.00000   0.00592   0.00591   1.96286
    A8        1.88113  -0.00057   0.00000   0.00212   0.00212   1.88324
    A9        1.91008  -0.00059   0.00000   0.00049   0.00050   1.91058
   A10        1.91177  -0.00191   0.00000  -0.00088  -0.00090   1.91087
   A11        1.92303  -0.00397   0.00000  -0.00493  -0.00494   1.91809
   A12        1.87881   0.00003   0.00000  -0.00291  -0.00292   1.87589
   A13        1.95164   0.00239   0.00000   0.00310   0.00309   1.95474
   A14        1.96639   0.00161   0.00000   0.00314   0.00313   1.96952
   A15        1.89834  -0.00255   0.00000  -0.00483  -0.00483   1.89352
   A16        1.84947  -0.00161   0.00000  -0.00088  -0.00089   1.84858
   A17        1.90845  -0.00107   0.00000  -0.00278  -0.00278   1.90567
   A18        1.88778   0.00120   0.00000   0.00224   0.00224   1.89003
   A19        1.84142   0.00184   0.00000   0.00066   0.00067   1.84209
   A20        1.95690   0.00059   0.00000   0.00191   0.00191   1.95881
   A21        1.89631  -0.00128   0.00000  -0.00281  -0.00281   1.89351
   A22        2.03925  -0.00166   0.00000   0.00063   0.00062   2.03987
   A23        1.85893   0.00019   0.00000   0.00029   0.00029   1.85923
   A24        1.86538   0.00023   0.00000  -0.00107  -0.00106   1.86431
   A25        1.98226   0.00014   0.00000   0.00213   0.00212   1.98438
   A26        1.76848   0.00029   0.00000   0.00025   0.00025   1.76873
   A27        1.92641   0.00007   0.00000   0.00017   0.00017   1.92658
   A28        1.99704   0.00186   0.00000   0.00180   0.00181   1.99885
   A29        1.90951  -0.00240   0.00000  -0.00553  -0.00553   1.90398
   A30        1.87388   0.00028   0.00000   0.00171   0.00171   1.87558
   A31        1.99224   0.00627   0.00000   0.00651   0.00648   1.99872
   A32        1.93754  -0.00183   0.00000  -0.00360  -0.00359   1.93395
   A33        1.91261  -0.00401   0.00000  -0.00374  -0.00377   1.90884
[...]
     47          1           0        4.421599   -2.281681    3.395741
     48          1           0        5.128186   -1.011425    2.391611
     49          1           0        5.140858   -2.687233    1.831513
     50          1           0        3.313656    2.833059   -0.201793
     51          1           0        4.639769    2.446706   -1.270454
     52          1           0        3.084282    2.575834   -3.265565
     53          1           0        1.756731    3.023811   -2.189962
     54          1           0        3.148035    4.097744   -2.367686
     55          1           0       -3.200202   -0.138197    1.891163
     56          1           0       -4.686872    0.258670    0.060085
     57          1           0       -3.579864    1.380872   -0.713782
     58          1           0       -2.267381    2.060023    2.700029
     59          1           0       -2.759553    2.793296    1.181630
     60          1           0       -4.475622    3.176607    2.954962
     61          1           0       -5.160881    2.201663    1.651313
     62          1           0       -4.674832    1.431995    3.166330
 ---------------------------------------------------------------------
 Rotational constants (GHZ):           0.3703942           0.1461293           0.1374567

 **********************************************************************

            Population analysis using the SCF Density.

 **********************************************************************

 Orbital symmetries:
       Occupied  (A) (A) (A) (A) (A) (A) (A) (A) (A) (A) (A) (A)
                 (A) (A) (A) (A) (A) (A) (A) (A) (A) (A) (A) (A)
                 (A) (A) (A) (A) (A) (A) (A) (A) (A) (A) (A) (A)
                 (A) (A) (A) (A) (A) (A) (A) (A) (A) (A) (A) (A)
                 (A) (A) (A) (A) (A) (A) (A) (A) (A) (A) (A) (A)
                 (A) (A) (A) (A) (A) (A) (A) (A) (A) (A) (A) (A)
                 (A) (A) (A) (A) (A) (A) (A) (A) (A) (A) (A) (A)
                 (A) (A)
       Virtual   (A) (A) (A) (A) (A) (A) (A) (A) (A) (A) (A) (A)
                 (A) (A) (A) (A) (A) (A) (A) (A) (A) (A) (A) (A)
                 (A) (A) (A) (A) (A) (A) (A) (A) (A) (A) (A) (A)
                 (A) (A) (A) (A) (A) (A) (A) (A) (A) (A) (A) (A)
                 (A) (A) (A) (A) (A) (A) (A) (A) (A) (A) (A) (A)
                 (A) (A) (A) (A) (A) (A) (A) (A) (A) (A) (A) (A)
                 (A) (A) (A) (A) (A) (A) (A) (A) (A) (A) (A) (A)
                 (A) (A) (A) (A) (A) (A) (A) (A) (A) (A) (A) (A)
                 (A) (A) (A) (A) (A) (A) (A) (A) (A) (A) (A) (A)
                 (A) (A) (A) (A) (A) (A) (A) (A) (A) (A) (A) (A)
                 (A) (A) (A) (A) (A) (A) (A) (A) (A) (A) (A) (A)
                 (A) (A) (A) (A) (A) (A) (A) (A) (A) (A) (A) (A)
                 (A) (A) (A) (A) (A) (A) (A) (A) (A) (A) (A) (A)
                 (A) (A) (A) (A) (A) (A) (A) (A) (A) (A) (A) (A)
                 (A) (A) (A) (A) (A) (A) (A) (A) (A) (A) (A) (A)
                 (A) (A) (A) (A) (A) (A) (A) (A) (A) (A) (A) (A)
                 (A) (A) (A) (A) (A) (A) (A) (A) (A) (A) (A) (A)
                 (A) (A) (A) (A) (A) (A) (A) (A) (A) (A) (A) (A)
                 (A) (A) (A) (A) (A) (A) (A) (A) (A) (A) (A) (A)
                 (A) (A) (A) (A) (A) (A) (A) (A) (A) (A) (A) (A)
                 (A) (A) (A) (A) (A) (A) (A) (A) (A) (A) (A) (A)
                 (A) (A) (A) (A) (A) (A) (A) (A) (A) (A) (A) (A)
                 (A) (A) (A) (A) (A) (A) (A) (A) (A) (A) (A) (A)
                 (A) (A) (A) (A) (A) (A) (A) (A) (A) (A) (A) (A)
                 (A) (A) (A) (A) (A) (A) (A) (A) (A) (A) (A) (A)
                 (A) (A) (A) (A) (A) (A) (A) (A) (A) (A) (A) (A)
                 (A) (A) (A) (A) (A) (A) (A) (A) (A) (A) (A) (A)
                 (A) (A) (A) (A) (A) (A) (A) (A) (A) (A) (A) (A)
                 (A) (A) (A) (A) (A) (A) (A) (A) (A) (A) (A) (A)
                 (A) (A) (A) (A) (A) (A) (A) (A) (A) (A) (A) (A)
                 (A) (A) (A) (A) (A) (A) (A) (A) (A) (A) (A) (A)
                 (A) (A) (A) (A) (A) (A) (A) (A) (A) (A) (A) (A)
                 (A) (A) (A) (A) (A) (A) (A) (A) (A) (A) (A) (A)
                 (A) (A) (A) (A) (A) (A) (A) (A) (A) (A) (A) (A)
                 (A) (A) (A) (A) (A) (A) (A) (A) (A) (A) (A) (A)
                 (A) (A) (A) (A) (A) (A) (A) (A) (A) (A) (A) (A)
                 (A) (A) (A) (A) (A) (A) (A) (A) (A) (A) (A) (A)
 The electronic state is 1-A.
 Alpha  occ. eigenvalues --  -10.17591 -10.17553 -10.17518 -10.17490 -10.17487
 Alpha  occ. eigenvalues --  -10.17468 -10.17459 -10.17459 -10.17422 -10.17391
 Alpha  occ. eigenvalues --  -10.17342 -10.17322 -10.17227 -10.17192 -10.17018
 Alpha  occ. eigenvalues --  -10.17005 -10.16955 -10.16923 -10.16904 -10.16871
 Alpha  occ. eigenvalues --  -10.16792 -10.16752  -0.84745  -0.83680  -0.78336
 Alpha  occ. eigenvalues --   -0.77656  -0.77609  -0.75187  -0.74773  -0.72934
 Alpha  occ. eigenvalues --   -0.70382  -0.69307  -0.66969  -0.65471  -0.62955
 Alpha  occ. eigenvalues --   -0.61852  -0.61464  -0.59874  -0.58068  -0.57011
 Alpha  occ. eigenvalues --   -0.53903  -0.53155  -0.52437  -0.51413  -0.48181
 Alpha  occ. eigenvalues --   -0.47301  -0.46697  -0.45358  -0.44636  -0.44230
 Alpha  occ. eigenvalues --   -0.43224  -0.42574  -0.41760  -0.41707  -0.41120
 Alpha  occ. eigenvalues --   -0.40827  -0.39988  -0.39573  -0.38930  -0.38694
 Alpha  occ. eigenvalues --   -0.38237  -0.37508  -0.37176  -0.36353  -0.36084
 Alpha  occ. eigenvalues --   -0.35805  -0.35249  -0.34976  -0.34525  -0.34202
 Alpha  occ. eigenvalues --   -0.33944  -0.33763  -0.33323  -0.32859  -0.30605
 Alpha  occ. eigenvalues --   -0.30554  -0.30318  -0.29965  -0.29819  -0.29738
 Alpha  occ. eigenvalues --   -0.29569  -0.29377  -0.28811  -0.27995  -0.27900
 Alpha  occ. eigenvalues --   -0.27515
 Alpha virt. eigenvalues --    0.06994   0.07523   0.08412   0.09650   0.10238
 Alpha virt. eigenvalues --    0.10302   0.10920   0.11331   0.12144   0.12513
 Alpha virt. eigenvalues --    0.12950   0.13455   0.13652   0.14319   0.14393
 Alpha virt. eigenvalues --    0.15458   0.15698   0.15866   0.16135   0.16323
 Alpha virt. eigenvalues --    0.16827   0.17171   0.17278   0.17626   0.17720
 Alpha virt. eigenvalues --    0.17992   0.18507   0.18591   0.19112   0.19492
 Alpha virt. eigenvalues --    0.19765   0.19879   0.20214   0.20512   0.21359
 Alpha virt. eigenvalues --    0.21941   0.22026   0.22370   0.22681   0.22812
 Alpha virt. eigenvalues --    0.23531   0.24009   0.24387   0.24681   0.25597
 Alpha virt. eigenvalues --    0.25733   0.26634   0.26946   0.27344   0.27965
 Alpha virt. eigenvalues --    0.28365   0.29030   0.29370   0.29981   0.30170
 Alpha virt. eigenvalues --    0.30498   0.31441   0.32367   0.32719   0.33634
 Alpha virt. eigenvalues --    0.34154   0.35393   0.36787   0.38129   0.48508
 Alpha virt. eigenvalues --    0.50043   0.50284   0.50518   0.52065   0.52370
 Alpha virt. eigenvalues --    0.52835   0.53234   0.53418   0.53815   0.54741
 Alpha virt. eigenvalues --    0.55636   0.55851   0.57099   0.57269   0.58005
 Alpha virt. eigenvalues --    0.58526   0.59521   0.59593   0.60161   0.61019
 Alpha virt. eigenvalues --    0.61391   0.62306   0.62896   0.64075   0.64663
 Alpha virt. eigenvalues --    0.65029   0.65731   0.66107   0.66951   0.67542
 Alpha virt. eigenvalues --    0.68309   0.69002   0.69582   0.69905   0.71105
 Alpha virt. eigenvalues --    0.72019   0.73211   0.74374   0.74830   0.75802
 Alpha virt. eigenvalues --    0.76549   0.76960   0.77964   0.79061   0.79508
 Alpha virt. eigenvalues --    0.80074   0.80584   0.81131   0.81203   0.81998
 Alpha virt. eigenvalues --    0.82296   0.83879   0.84059   0.84201   0.85087
 Alpha virt. eigenvalues --    0.85958   0.86149   0.86406   0.86959   0.87309
 Alpha virt. eigenvalues --    0.87331   0.87855   0.88067   0.88410   0.88566
 Alpha virt. eigenvalues --    0.89117   0.89454   0.89718   0.90113   0.90520
 Alpha virt. eigenvalues --    0.91015   0.91254   0.92154   0.92528   0.92949
 Alpha virt. eigenvalues --    0.93246   0.93766   0.94288   0.94426   0.94613
 Alpha virt. eigenvalues --    0.94892   0.94989   0.95667   0.96327   0.96659
 Alpha virt. eigenvalues --    0.97361   0.98237   0.98727   0.99427   1.00130
 Alpha virt. eigenvalues --    1.01267   1.01869   1.02378   1.03286   1.04599
 Alpha virt. eigenvalues --    1.05458   1.06133   1.07333   1.08836   1.11002
 Alpha virt. eigenvalues --    1.11830   1.12377   1.14393   1.16049   1.18821
 Alpha virt. eigenvalues --    1.20507   1.22243   1.23528   1.25219   1.26281
 Alpha virt. eigenvalues --    1.29684   1.30337   1.33208   1.35740   1.37491
 Alpha virt. eigenvalues --    1.39019   1.40176   1.42756   1.43328   1.44835
 Alpha virt. eigenvalues --    1.46292   1.46927   1.48076   1.48749   1.50464
 Alpha virt. eigenvalues --    1.51070   1.53327   1.54902   1.55597   1.56439
 Alpha virt. eigenvalues --    1.58353   1.59252   1.60685   1.63443   1.63582
 Alpha virt. eigenvalues --    1.64443   1.65624   1.65993   1.66789   1.68743
 Alpha virt. eigenvalues --    1.69074   1.70330   1.70573   1.72190   1.73400
 Alpha virt. eigenvalues --    1.74354   1.75674   1.76820   1.78088   1.78645
 Alpha virt. eigenvalues --    1.79921   1.80392   1.80743   1.81795   1.82335
 Alpha virt. eigenvalues --    1.83252   1.84494   1.85594   1.85911   1.86219
 Alpha virt. eigenvalues --    1.86603   1.87038   1.88370   1.89205   1.90004
 Alpha virt. eigenvalues --    1.90830   1.91219   1.91561   1.92851   1.93664
 Alpha virt. eigenvalues --    1.94094   1.94998   1.95849   1.96346   1.97221
 Alpha virt. eigenvalues --    1.97661   1.99879   2.00939   2.01506   2.02357
 Alpha virt. eigenvalues --    2.03014   2.03928   2.04335   2.05139   2.05375
 Alpha virt. eigenvalues --    2.05729   2.06333   2.06632   2.06763   2.07526
 Alpha virt. eigenvalues --    2.07826   2.08430   2.08779   2.09110   2.09274
 Alpha virt. eigenvalues --    2.09684   2.10529   2.10754   2.11454   2.11590
 Alpha virt. eigenvalues --    2.13177   2.13731   2.14671   2.15212   2.15747
 Alpha virt. eigenvalues --    2.17485   2.18234   2.19626   2.20356   2.21779
 Alpha virt. eigenvalues --    2.23303   2.23331   2.24932   2.25742   2.26022
 Alpha virt. eigenvalues --    2.26852   2.27109   2.28181   2.28886   2.29411
 Alpha virt. eigenvalues --    2.29949   2.30568   2.31097   2.31329   2.31610
 Alpha virt. eigenvalues --    2.32720   2.34011   2.34803   2.35443   2.35948
 Alpha virt. eigenvalues --    2.37082   2.37987   2.38417   2.39602   2.41871
 Alpha virt. eigenvalues --    2.42334   2.43213   2.44031   2.44722   2.45606
 Alpha virt. eigenvalues --    2.46727   2.47035   2.47887   2.48335   2.49349
 Alpha virt. eigenvalues --    2.50449   2.50813   2.51436   2.53095   2.53894
 Alpha virt. eigenvalues --    2.54286   2.55443   2.56462   2.57086   2.58258
 Alpha virt. eigenvalues --    2.59810   2.60963   2.61287   2.62045   2.63689
 Alpha virt. eigenvalues --    2.64683   2.66274   2.66884   2.67381   2.68306
 Alpha virt. eigenvalues --    2.69006   2.69477   2.69758   2.70704   2.71707
 Alpha virt. eigenvalues --    2.72623   2.73493   2.73835   2.74143   2.74998
 Alpha virt. eigenvalues --    2.75304   2.75987   2.76149   2.77064   2.77444
 Alpha virt. eigenvalues --    2.78487   2.79805   2.80298   2.80907   2.81733
 Alpha virt. eigenvalues --    2.82302   2.82785   2.83935   2.84536   2.84720
 Alpha virt. eigenvalues --    2.85223   2.85510   2.86647   2.87287   2.88723
 Alpha virt. eigenvalues --    2.89030   2.89278   2.89871   2.90434   2.90903
 Alpha virt. eigenvalues --    2.91072   2.91649   2.91874   2.92324   2.93064
 Alpha virt. eigenvalues --    2.93340   2.93835   2.94407   2.95454   2.95637
 Alpha virt. eigenvalues --    2.96277   2.97419   2.99374   3.03280   3.06112
 Alpha virt. eigenvalues --    3.08049   3.09677   3.19695   3.20072   3.20396
 Alpha virt. eigenvalues --    3.20820   3.26594   3.28456   3.29795   3.30602
 Alpha virt. eigenvalues --    3.31425   3.32303   3.33447   3.33602   3.35378
 Alpha virt. eigenvalues --    3.35648   3.36347   3.36583   3.37013   3.38973
 Alpha virt. eigenvalues --    3.41059   3.42818   3.43581   3.44934   3.45686
 Alpha virt. eigenvalues --    3.46179   3.46245   3.47304   3.48276   3.49071
 Alpha virt. eigenvalues --    3.49624   3.50423   3.51445   3.53442   3.53769
 Alpha virt. eigenvalues --    3.54759   3.55479   3.56858   3.57371   3.57977
 Alpha virt. eigenvalues --    3.59041   3.60407   4.21969   4.29036   4.32809
 Alpha virt. eigenvalues --    4.35129   4.36904   4.43369   4.45176   4.47136
 Alpha virt. eigenvalues --    4.50750   4.53954   4.56328   4.62799   4.63226
 Alpha virt. eigenvalues --    4.65989   4.68759   4.71582   4.76565   4.79267
 Alpha virt. eigenvalues --    4.86171   4.88853   4.90412   4.97452
          Condensed to atoms (all electrons):
 Mulliken charges:
               1
     1  C   -0.320512
     2  C   -0.178008
     3  C   -0.048141
     4  C   -0.059415
     5  C   -0.073068
     6  C   -0.184834
     7  C   -0.183925
     8  C   -0.061536
     9  C   -0.067579
    10  C   -0.186930
    11  C   -0.186968
    12  C   -0.066313
    13  C   -0.184983
    14  C   -0.054900
    15  C   -0.177348
    16  C   -0.323185
    17  C   -0.177001
    18  C   -0.320652
    19  C   -0.056491
    20  C   -0.188282
    21  C   -0.177843
    22  C   -0.323008
    23  H    0.104268
    24  H    0.098523
    25  H    0.100753
    26  H    0.089666
    27  H    0.086798
    28  H    0.073569
    29  H    0.075238
    30  H    0.072321
    31  H    0.086073
    32  H    0.090660
    33  H    0.090503
    34  H    0.088020
    35  H    0.075590
    36  H    0.078629
    37  H    0.095859
    38  H    0.086608
    39  H    0.089372
    40  H    0.086458
    41  H    0.075865
    42  H    0.088175
    43  H    0.087205
    44  H    0.076176
    45  H    0.091393
    46  H    0.089529
    47  H    0.097409
    48  H    0.106187
    49  H    0.099825
    50  H    0.089331
    51  H    0.087519
    52  H    0.100635
    53  H    0.105836
    54  H    0.098082
    55  H    0.077024
    56  H    0.089088
    57  H    0.088139
    58  H    0.087388
    59  H    0.092209
    60  H    0.098151
    61  H    0.106333
    62  H    0.100517
 Sum of Mulliken charges =  -0.00000
 Mulliken charges with hydrogens summed into heavy atoms:
               1
     1  C   -0.016968
     2  C   -0.001544
     3  C    0.025429
     4  C    0.015823
     5  C   -0.000748
     6  C   -0.008101
     7  C   -0.005403
     8  C    0.014053
     9  C    0.011050
    10  C   -0.004462
    11  C   -0.011139
    12  C    0.009552
    13  C   -0.009603
    14  C    0.021277
    15  C    0.003574
    16  C   -0.019765
    17  C   -0.000151
    18  C   -0.016099
    19  C    0.020533
    20  C   -0.011054
    21  C    0.001754
    22  C   -0.018008
 Electronic spatial extent (au):  <R**2>=           9271.8956
 Charge=              0.0000 electrons
 Dipole moment (field-independent basis, Debye):
    X=              0.0525    Y=              0.0086    Z=             -0.0156  Tot=              0.0554
 Quadrupole moment (field-independent basis, Debye-Ang):
   XX=           -144.2971   YY=           -142.4948   ZZ=           -142.8259
   XY=              0.1752   XZ=             -1.1631   YZ=              0.2584
 Traceless Quadrupole moment (field-independent basis, Debye-Ang):
   XX=             -1.0911   YY=              0.7111   ZZ=              0.3800
   XY=              0.1752   XZ=             -1.1631   YZ=              0.2584
 Octapole moment (field-independent basis, Debye-Ang**2):
  XXX=              3.9827  YYY=             -0.9858  ZZZ=              1.0386  XYY=              0.1850
  XXY=             -0.1934  XXZ=             -3.5175  XZZ=              1.3953  YZZ=             -0.8959
  YYZ=              0.2013  XYZ=              3.4474
 Hexadecapole moment (field-independent basis, Debye-Ang**3):
 XXXX=          -8556.9668 YYYY=          -2493.9917 ZZZZ=          -1893.2269 XXXY=             18.8070
 XXXZ=            -42.7681 YYYX=             -0.5320 YYYZ=             10.1978 ZZZX=             -9.0983
 ZZZY=              1.0164 XXYY=          -1833.9950 XXZZ=          -1757.2175 YYZZ=           -740.1694
 XXYZ=             -1.5791 YYXZ=             -0.9455 ZZXY=              2.4091
 N-N= 1.997841079220D+03 E-N=-5.988715473970D+03  KE= 8.538896361129D+02
 Unable to Open any file for archive entry.
 1\1\GINC-HPCS12\FOpt\RB3LYP\6-31G(d,p)\C22H40\Z002445\09-Dec-2025\0\\#
  opt=(maxstep=5) B3LYP/6-31G** SCF=(XQC,MaxCycle=200,noincore) Int=(Gr
 id=UltraFine)\\m2g_ROMP_chair\\0,1\C,-4.9467754219,1.9329977781,1.9775
 08677\C,-3.8161866797,2.1085187683,0.9584248065\C,-2.9109409409,0.8749
 504971,0.8077039429\C,-1.6345453518,1.1587123174,-0.0409099616\C,-1.33
 51469383,-0.1727433901,-0.7861883173\C,-0.5246810179,-1.2243265087,0.0
 090772206\C,1.0246975129,-1.1580447941,-0.0900367329\C,1.7716728716,-0
 .316628007,0.9731172716\C,2.0075992148,1.1827799859,0.6188125928\C,0.8
 316597126,1.9321111656,-0.0209526938\C,-0.4914878332,1.7813469608,0.76
 99658163\C,3.2338420007,-0.7774210156,1.2483739062\C,4.0279858698,-0.1
 497467936,0.0907518268\C,3.374336511,1.2348253398,-0.1687228878\C,3.29
 55384991,1.5794071707,-1.6667306419\C,4.6746821749,1.7077115698,-2.324
 6650914\C,3.5084111952,-2.2705910186,1.4654091817\C,2.7563926268,-2.88
 35546867,2.6521021936\C,-2.7794263059,-0.6191420308,-1.158621515\C,-3.
 6026603975,-0.3377821428,0.1181460761\C,-2.9555693791,-2.0212752616,-1
 .7550696558\C,-4.3543460341,-2.264512838,-2.3358329475\H,-5.6039662519
 ,1.0979602891,1.7117648167\H,-5.5671038608,2.8329737124,2.0432203029\H
 ,-4.5467787982,1.7310784898,2.977865134\H,-3.204296744,2.9717114214,1.
 2523730225\H,-4.2407605934,2.3584715846,-0.0243634652\H,-2.5910170499,
 0.5766702353,1.8165056348\H,-1.9157822213,1.8825539759,-0.8221908884\H
 ,-0.7833046367,0.0242064098,-1.7149688488\H,-0.8210130497,-1.224966424
 6,1.0670147257\H,-0.8090112213,-2.21059216,-0.3708828259\H,1.377773218
 9,-2.1906903113,-0.0007478652\H,1.3061360166,-0.845964323,-1.104097433
 4\H,1.1969325305,-0.3910302988,1.9044984304\H,2.1966414924,1.675071936
 9,1.5836474538\H,0.6826631556,1.5871413595,-1.0486358745\H,1.099412012
 ,2.9924045534,-0.1067306009\H,-0.3219334353,1.1758386485,1.6677774927\
 H,-0.8205030838,2.7594557886,1.141085022\H,3.5368941555,-0.2618718429,
 2.1736988967\H,3.9296468406,-0.7836142843,-0.8021421764\H,5.0992582609
 ,-0.0829767825,0.3087030838\H,3.9936383447,2.0143241353,0.296044035\H,
 2.7542050948,2.5230799457,-1.8028054187\H,2.7135296545,0.8126763703,-2
 .1962615454\H,4.5852592894,1.9770640958,-3.3822392705\H,5.2398961725,0
 .7716282107,-2.268924422\H,5.273505016,2.4838224494,-1.8336503237\H,3.
 2813648522,-2.8348366134,0.5516936763\H,4.5881265246,-2.3954744565,1.6
 237091383\H,2.9809163893,-2.3467713557,3.5810498365\H,1.6716059348,-2.
 8480640739,2.5066158337\H,3.0353402654,-3.9320209305,2.7997169919\H,-3
 .1147925992,0.0958652671,-1.9260738143\H,-4.6547059006,-0.1358551299,-
 0.1107193113\H,-3.5910197331,-1.2183357472,0.7727285519\H,-2.208085884
 1,-2.1735724964,-2.5458526985\H,-2.7532282605,-2.782745138,-0.99112239
 58\H,-4.4320667411,-3.2639527307,-2.7761895787\H,-5.1292118267,-2.1821
 925188,-1.5664871707\H,-4.5895152187,-1.5363643274,-3.1206892184\\Vers
 ion=ES64L-G16RevC.02\State=1-A\HF=-862.5035335\RMSD=6.680e-09\RMSF=4.4
 91e-06\Dipole=0.0204049,-0.003319,0.0068958\Quadrupole=-0.8587824,0.55
 7745,0.3010374,-0.0438678,0.8455745,0.1541091\PG=C01 [X(C22H40)]\\@
 The archive entry for this job was punched.


 When cryptography is outlawed, bayl bhgynjf jvyy unir cevinpl.
 Job cpu time:       0 days  1 hours 48 minutes 13.2 seconds.
 Elapsed time:       0 days  0 hours  3 minutes 48.6 seconds.
 File lengths (MBytes):  RWF=    180 Int=      0 D2E=      0 Chk=     25 Scr=      1
 Normal termination of Gaussian 16 at Tue Dec  9 15:56:58 2025.
