 Entering Gaussian System, Link 0=g16
 Input=ROMP_twistboat.com
 Output=ROMP_twistboat.log
 Initial command:
 /usr/local/gaussian16c02/g16/l1.exe "/scr/Gau-854895.inp" -scrdir="/scr/"
 Entering Link 1 = /usr/local/gaussian16c02/g16/l1.exe PID=    854896.
  
 Copyright (c) 1988-2021, Gaussian, Inc.  All Rights Reserved.
  
 This is part of the Gaussian(R) 16 program.  It is based on
 the Gaussian(R) 09 system (copyright 2009, Gaussian, Inc.),
 the Gaussian(R) 03 system (copyright 2003, Gaussian, Inc.),
 the Gaussian(R) 98 system (copyright 1998, Gaussian, Inc.),
 the Gaussian(R) 94 system (copyright 1995, Gaussian, Inc.),
 the Gaussian 92(TM) system (copyright 1992, Gaussian, Inc.),
 the Gaussian 90(TM) system (copyright 1990, Gaussian, Inc.),
 the Gaussian 88(TM) system (copyright 1988, Gaussian, Inc.),
 the Gaussian 86(TM) system (copyright 1986, Carnegie Mellon
 University), and the Gaussian 82(TM) system (copyright 1983,
 Carnegie Mellon University). Gaussian is a federally registered
 trademark of Gaussian, Inc.
  
 This software contains proprietary and confidential information,
 including trade secrets, belonging to Gaussian, Inc.
  
 This software is provided under written license and may be
 used, copied, transmitted, or stored only in accord with that
 written license.
  
 The following legend is applicable only to US Government
 contracts under FAR:
  
                    RESTRICTED RIGHTS LEGEND
  
 Use, reproduction and disclosure by the US Government is
 subject to restrictions as set forth in subparagraphs (a)
 and (c) of the Commercial Computer Software - Restricted
 Rights clause in FAR 52.227-19.
  
 Gaussian, Inc.
 340 Quinnipiac St., Bldg. 40, Wallingford CT 06492
  
  
 ---------------------------------------------------------------
 Warning -- This program may not be used in any manner that
 competes with the business of Gaussian, Inc. or will provide
 assistance to any competitor of Gaussian, Inc.  The licensee
 of this program is prohibited from giving any competitor of
 Gaussian, Inc. access to this program.  By using this program,
 the user acknowledges that Gaussian, Inc. is engaged in the
 business of creating and licensing software in the field of
 computational chemistry and represents and warrants to the
 licensee that it is not a competitor of Gaussian, Inc. and that
 it will not use this program in any manner prohibited above.
 ---------------------------------------------------------------
  

 Cite this work as:
 Gaussian 16, Revision C.02,
 M. J. Frisch, G. W. Trucks, H. B. Schlegel, G. E. Scuseria, 
 M. A. Robb, J. R. Cheeseman, G. Scalmani, V. Barone, 
 G. A. Petersson, H. Nakatsuji, X. Li, M. Caricato, A. V. Marenich, 
 J. Bloino, B. G. Janesko, R. Gomperts, B. Mennucci, H. P. Hratchian, 
 J. V. Ortiz, A. F. Izmaylov, J. L. Sonnenberg, D. Williams-Young, 
 F. Ding, F. Lipparini, F. Egidi, J. Goings, B. Peng, A. Petrone, 
 T. Henderson, D. Ranasinghe, V. G. Zakrzewski, J. Gao, N. Rega, 
 G. Zheng, W. Liang, M. Hada, M. Ehara, K. Toyota, R. Fukuda, 
 J. Hasegawa, M. Ishida, T. Nakajima, Y. Honda, O. Kitao, H. Nakai, 
 T. Vreven, K. Throssell, J. A. Montgomery, Jr., J. E. Peralta, 
 F. Ogliaro, M. J. Bearpark, J. J. Heyd, E. N. Brothers, K. N. Kudin, 
 V. N. Staroverov, T. A. Keith, R. Kobayashi, J. Normand, 
 K. Raghavachari, A. P. Rendell, J. C. Burant, S. S. Iyengar, 
 J. Tomasi, M. Cossi, J. M. Millam, M. Klene, C. Adamo, R. Cammi, 
 J. W. Ochterski, R. L. Martin, K. Morokuma, O. Farkas, 
 J. B. Foresman, and D. J. Fox, Gaussian, Inc., Wallingford CT, 2019.
 
 ******************************************
 Gaussian 16:  ES64L-G16RevC.02  7-Dec-2021
                 9-Dec-2025 
 ******************************************
 %chk=ROMP_twistboat
 %mem=4GB
 %nproc=32
 Will use up to   32 processors via shared memory.
 ----------------------------------------------------------------------
 # opt=(maxstep=5) B3LYP/6-31G** SCF=(XQC,MaxCycle=200,noincore) Int=(G
 rid=UltraFine)
 ----------------------------------------------------------------------
 1/8=5,18=20,19=15,26=4,38=1/1,3;
 2/9=110,12=2,17=6,18=5,40=1/2;
 3/5=1,6=6,7=101,11=2,25=1,30=1,71=1,74=-5,75=-5/1,2,3;
 4//1;
 5/5=4,7=200,8=3,13=1,38=5/2,8;
 6/7=2,8=2,9=2,10=2,28=1/1;
 7//1,2,3,16;
 1/8=5,18=20,19=15,26=4/3(2);
 2/9=110/2;
 99//99;
 2/9=110/2;
 3/5=1,6=6,7=101,11=2,25=1,30=1,71=1,74=-5,75=-5/1,2,3;
 4/5=5,16=3,69=1/1;
 5/5=4,7=200,8=3,13=1,38=5/2,8;
 7//1,2,3,16;
 1/8=5,18=20,19=15,26=4/3(-5);
 2/9=110/2;
 6/7=2,8=2,9=2,10=2,19=2,28=1/1;
 99/9=1/99;
 ------------------
 m2g_ROMP_twistboat
 ------------------
 Symbolic Z-matrix:
 Charge =  0 Multiplicity = 1
 C                     5.1995   -2.0629    1.1069 
 C                     3.6787   -1.8789    1.1074 
 C                     3.1618   -1.2349   -0.2084 
 C                     1.6101   -1.0581   -0.3478 
 C                     1.3639    0.4727   -0.4405 
 C                     0.9833    1.1542    0.9119 
 C                    -0.4247    0.847     1.4879 
 C                    -1.5247    0.5923    0.4282 
 C                    -1.5063   -0.8044   -0.2662 
 C                    -0.7567   -1.9533    0.4641 
 C                     0.7735   -1.8501    0.6896 
 C                    -2.9439    0.7501    0.9975 
 C                    -3.8236    0.0043    0.0011 
 C                    -2.9991   -1.2016   -0.4424 
 C                    -3.3204   -1.6506   -1.8853 
 C                    -4.7514   -2.1693   -2.0267 
 C                    -3.3741    2.2296    1.1569 
 C                    -4.786     2.3639    1.7299 
 C                     2.6795    0.997    -1.0538 
 C                     3.7712    0.1593   -0.4129 
 C                     2.9253    2.5196   -0.9375 
 C                     4.0913    2.9832   -1.8098 
 H                     5.5025   -2.6583    1.9958 
 H                     5.5222   -2.6071    0.1922 
 H                     5.7187   -1.081     1.1521 
 H                     3.3852   -1.2593    1.9832 
 H                     3.243    -2.8917    1.2305 
 H                     3.4989   -1.8853   -1.049 
 H                     1.3336   -1.4789   -1.3421 
 H                     0.5876    0.707    -1.1929 
 H                     1.0003    2.254     0.7657 
 H                     1.7498    0.9213    1.6829 
 H                    -0.4045    0.0364    2.2407 
 H                    -0.708     1.7343    2.0928 
 H                    -1.4148    1.3662   -0.3663 
 H                    -1.0563   -0.7002   -1.2755 
 H                    -1.2339   -2.13      1.452 
 H                    -0.9346   -2.8764   -0.1319 
 H                     1.1302   -2.9017    0.6691 
 H                     1.0002   -1.5042    1.7159 
 H                    -3.0034    0.2367    1.9858 
 H                    -4.0507    0.6596   -0.8698 
 H                    -4.779    -0.3166    0.4718 
 H                    -3.2583   -2.0405    0.2457 
 H                    -3.1632   -0.8083   -2.5942 
 H                    -2.6256   -2.4707   -2.1713 
 H                    -4.9286   -3.0128   -1.3258 
 H                    -5.4824   -1.3602   -1.8196 
 H                    -4.9136   -2.5288   -3.0645 
 H                    -2.6808    2.7536    1.8466 
 H                    -3.3303    2.7529    0.1755 
 H                    -5.5397    2.0361    0.9846 
 H                    -4.8914    1.7569    2.6539 
 H                    -4.9855    3.4263    1.9818 
 H                     2.6567    0.7415   -2.1398 
 H                     4.0589    0.616     0.5597 
 H                     4.6706    0.1074   -1.0651 
 H                     2.0121    3.0635   -1.2666 
 H                     3.1413    2.8026    0.1164 
 H                     5.0405    2.5188   -1.4711 
 H                     4.1954    4.0863   -1.7298 
 H                     3.9099    2.7252   -2.8757 
 

 GradGradGradGradGradGradGradGradGradGradGradGradGradGradGradGradGradGrad
 Berny optimization.
 Initialization pass.
                           ----------------------------
                           !    Initial Parameters    !
                           ! (Angstroms and Degrees)  !
 --------------------------                            --------------------------
 ! Name  Definition              Value          Derivative Info.                !
 --------------------------------------------------------------------------------
 ! R1    R(1,2)                  1.5319         estimate D2E/DX2                !
 ! R2    R(1,23)                 1.112          estimate D2E/DX2                !
 ! R3    R(1,24)                 1.1122         estimate D2E/DX2                !
 ! R4    R(1,25)                 1.1116         estimate D2E/DX2                !
 ! R5    R(2,3)                  1.5535         estimate D2E/DX2                !
 ! R6    R(2,26)                 1.1122         estimate D2E/DX2                !
 ! R7    R(2,27)                 1.1094         estimate D2E/DX2                !
 ! R8    R(3,4)                  1.5679         estimate D2E/DX2                !
 ! R9    R(3,20)                 1.5352         estimate D2E/DX2                !
 ! R10   R(3,28)                 1.115          estimate D2E/DX2                !
 ! R11   R(4,5)                  1.5532         estimate D2E/DX2                !
 ! R12   R(4,11)                 1.5503         estimate D2E/DX2                !
 ! R13   R(4,29)                 1.1145         estimate D2E/DX2                !
 ! R14   R(5,6)                  1.5615         estimate D2E/DX2                !
 ! R15   R(5,19)                 1.5433         estimate D2E/DX2                !
 ! R16   R(5,30)                 1.1062         estimate D2E/DX2                !
 ! R17   R(6,7)                  1.552          estimate D2E/DX2                !
 ! R18   R(6,31)                 1.1096         estimate D2E/DX2                !
 ! R19   R(6,32)                 1.1118         estimate D2E/DX2                !
 ! R20   R(7,8)                  1.5485         estimate D2E/DX2                !
 ! R21   R(7,33)                 1.1064         estimate D2E/DX2                !
 ! R22   R(7,34)                 1.1106         estimate D2E/DX2                !
 ! R23   R(8,9)                  1.5599         estimate D2E/DX2                !
 ! R24   R(8,12)                 1.5372         estimate D2E/DX2                !
 ! R25   R(8,35)                 1.1146         estimate D2E/DX2                !
 ! R26   R(9,10)                 1.5541         estimate D2E/DX2                !
 ! R27   R(9,14)                 1.5548         estimate D2E/DX2                !
 ! R28   R(9,36)                 1.11           estimate D2E/DX2                !
 ! R29   R(10,11)                1.5502         estimate D2E/DX2                !
 ! R30   R(10,37)                1.1113         estimate D2E/DX2                !
 ! R31   R(10,38)                1.1131         estimate D2E/DX2                !
 ! R32   R(11,39)                1.1106         estimate D2E/DX2                !
 ! R33   R(11,40)                1.1065         estimate D2E/DX2                !
 ! R34   R(12,13)                1.5241         estimate D2E/DX2                !
 ! R35   R(12,17)                1.549          estimate D2E/DX2                !
 ! R36   R(12,41)                1.1153         estimate D2E/DX2                !
 ! R37   R(13,14)                1.5267         estimate D2E/DX2                !
 ! R38   R(13,42)                1.1133         estimate D2E/DX2                !
 ! R39   R(13,43)                1.1124         estimate D2E/DX2                !
 ! R40   R(14,15)                1.5449         estimate D2E/DX2                !
 ! R41   R(14,44)                1.1155         estimate D2E/DX2                !
 ! R42   R(15,16)                1.5287         estimate D2E/DX2                !
 ! R43   R(15,45)                1.1121         estimate D2E/DX2                !
 ! R44   R(15,46)                1.1123         estimate D2E/DX2                !
 ! R45   R(16,47)                1.1109         estimate D2E/DX2                !
 ! R46   R(16,48)                1.1099         estimate D2E/DX2                !
 ! R47   R(16,49)                1.1102         estimate D2E/DX2                !
 ! R48   R(17,18)                1.5296         estimate D2E/DX2                !
 ! R49   R(17,50)                1.1095         estimate D2E/DX2                !
 ! R50   R(17,51)                1.1131         estimate D2E/DX2                !
 ! R51   R(18,52)                1.1095         estimate D2E/DX2                !
 ! R52   R(18,53)                1.1106         estimate D2E/DX2                !
 ! R53   R(18,54)                1.1099         estimate D2E/DX2                !
 ! R54   R(19,20)                1.518          estimate D2E/DX2                !
 ! R55   R(19,21)                1.5467         estimate D2E/DX2                !
 ! R56   R(19,55)                1.1159         estimate D2E/DX2                !
 ! R57   R(20,56)                1.1123         estimate D2E/DX2                !
 ! R58   R(20,57)                1.1122         estimate D2E/DX2                !
 ! R59   R(21,22)                1.5282         estimate D2E/DX2                !
 ! R60   R(21,58)                1.1127         estimate D2E/DX2                !
 ! R61   R(21,59)                1.1124         estimate D2E/DX2                !
 ! R62   R(22,60)                1.1097         estimate D2E/DX2                !
 ! R63   R(22,61)                1.1109         estimate D2E/DX2                !
 ! R64   R(22,62)                1.1116         estimate D2E/DX2                !
 ! A1    A(2,1,23)             109.5466         estimate D2E/DX2                !
 ! A2    A(2,1,24)             110.3093         estimate D2E/DX2                !
 ! A3    A(2,1,25)             110.951          estimate D2E/DX2                !
 ! A4    A(23,1,24)            108.4447         estimate D2E/DX2                !
 ! A5    A(23,1,25)            108.2513         estimate D2E/DX2                !
 ! A6    A(24,1,25)            109.2763         estimate D2E/DX2                !
 ! A7    A(1,2,3)              112.3243         estimate D2E/DX2                !
 ! A8    A(1,2,26)             109.2166         estimate D2E/DX2                !
 ! A9    A(1,2,27)             106.2766         estimate D2E/DX2                !
 ! A10   A(3,2,26)             110.3779         estimate D2E/DX2                !
 ! A11   A(3,2,27)             109.9847         estimate D2E/DX2                !
 ! A12   A(26,2,27)            108.5155         estimate D2E/DX2                !
 ! A13   A(2,3,4)              116.8298         estimate D2E/DX2                !
 ! A14   A(2,3,20)             110.9294         estimate D2E/DX2                !
 ! A15   A(2,3,28)             107.2259         estimate D2E/DX2                !
 ! A16   A(4,3,20)             106.1757         estimate D2E/DX2                !
 ! A17   A(4,3,28)             107.334          estimate D2E/DX2                !
 ! A18   A(20,3,28)            108.0166         estimate D2E/DX2                !
 ! A19   A(3,4,5)              105.8608         estimate D2E/DX2                !
 ! A20   A(3,4,11)             114.6424         estimate D2E/DX2                !
 ! A21   A(3,4,29)             106.3951         estimate D2E/DX2                !
 ! A22   A(5,4,11)             117.2513         estimate D2E/DX2                !
 ! A23   A(5,4,29)             106.2327         estimate D2E/DX2                !
 ! A24   A(11,4,29)            105.6774         estimate D2E/DX2                !
 ! A25   A(4,5,6)              114.6503         estimate D2E/DX2                !
 ! A26   A(4,5,19)             102.9095         estimate D2E/DX2                !
 ! A27   A(4,5,30)             111.1359         estimate D2E/DX2                !
 ! A28   A(6,5,19)             113.8087         estimate D2E/DX2                !
 ! A29   A(6,5,30)             109.0019         estimate D2E/DX2                !
 ! A30   A(19,5,30)            104.8317         estimate D2E/DX2                !
 ! A31   A(5,6,7)              117.141          estimate D2E/DX2                !
 ! A32   A(5,6,31)             108.3447         estimate D2E/DX2                !
 ! A33   A(5,6,32)             109.9456         estimate D2E/DX2                !
 ! A34   A(7,6,31)             105.0103         estimate D2E/DX2                !
 ! A35   A(7,6,32)             109.0633         estimate D2E/DX2                !
 ! A36   A(31,6,32)            106.7637         estimate D2E/DX2                !
 ! A37   A(6,7,8)              115.0266         estimate D2E/DX2                !
 ! A38   A(6,7,33)             112.394          estimate D2E/DX2                !
 ! A39   A(6,7,34)             105.9872         estimate D2E/DX2                !
 ! A40   A(8,7,33)             110.9824         estimate D2E/DX2                !
 ! A41   A(8,7,34)             108.8405         estimate D2E/DX2                !
 ! A42   A(33,7,34)            102.6736         estimate D2E/DX2                !
 ! A43   A(7,8,9)              116.3295         estimate D2E/DX2                !
 ! A44   A(7,8,12)             112.6745         estimate D2E/DX2                !
 ! A45   A(7,8,35)             107.6723         estimate D2E/DX2                !
 ! A46   A(9,8,12)             105.525          estimate D2E/DX2                !
 ! A47   A(9,8,35)             107.6513         estimate D2E/DX2                !
 ! A48   A(12,8,35)            106.484          estimate D2E/DX2                !
 ! A49   A(8,9,10)             117.2858         estimate D2E/DX2                !
 ! A50   A(8,9,14)             105.5375         estimate D2E/DX2                !
 ! A51   A(8,9,36)             108.9963         estimate D2E/DX2                !
 ! A52   A(10,9,14)            109.1176         estimate D2E/DX2                !
 ! A53   A(10,9,36)            107.5267         estimate D2E/DX2                !
 ! A54   A(14,9,36)            108.0708         estimate D2E/DX2                !
 ! A55   A(9,10,11)            119.6875         estimate D2E/DX2                !
 ! A56   A(9,10,37)            109.1583         estimate D2E/DX2                !
 ! A57   A(9,10,38)            106.5218         estimate D2E/DX2                !
 ! A58   A(11,10,37)           107.7677         estimate D2E/DX2                !
 ! A59   A(11,10,38)           106.9098         estimate D2E/DX2                !
 ! A60   A(37,10,38)           105.9922         estimate D2E/DX2                !
 ! A61   A(4,11,10)            117.9929         estimate D2E/DX2                !
 ! A62   A(4,11,39)            107.3406         estimate D2E/DX2                !
 ! A63   A(4,11,40)            110.512          estimate D2E/DX2                !
 ! A64   A(10,11,39)           104.5551         estimate D2E/DX2                !
 ! A65   A(10,11,40)           110.9761         estimate D2E/DX2                !
 ! A66   A(39,11,40)           104.3184         estimate D2E/DX2                !
 ! A67   A(8,12,13)            103.9175         estimate D2E/DX2                !
 ! A68   A(8,12,17)            113.1136         estimate D2E/DX2                !
 ! A69   A(8,12,41)            109.2791         estimate D2E/DX2                !
 ! A70   A(13,12,17)           111.9844         estimate D2E/DX2                !
 ! A71   A(13,12,41)           108.8611         estimate D2E/DX2                !
 ! A72   A(17,12,41)           109.4918         estimate D2E/DX2                !
 ! A73   A(12,13,14)           105.3504         estimate D2E/DX2                !
 ! A74   A(12,13,42)           109.9454         estimate D2E/DX2                !
 ! A75   A(12,13,43)           111.117          estimate D2E/DX2                !
 ! A76   A(14,13,42)           110.356          estimate D2E/DX2                !
 ! A77   A(14,13,43)           111.0338         estimate D2E/DX2                !
 ! A78   A(42,13,43)           109.0032         estimate D2E/DX2                !
 ! A79   A(9,14,13)            106.4887         estimate D2E/DX2                !
 ! A80   A(9,14,15)            112.3199         estimate D2E/DX2                !
 ! A81   A(9,14,44)            110.2008         estimate D2E/DX2                !
 ! A82   A(13,14,15)           112.8653         estimate D2E/DX2                !
 ! A83   A(13,14,44)           106.818          estimate D2E/DX2                !
 ! A84   A(15,14,44)           108.0121         estimate D2E/DX2                !
 ! A85   A(14,15,16)           112.3145         estimate D2E/DX2                !
 ! A86   A(14,15,45)           110.2327         estimate D2E/DX2                !
 ! A87   A(14,15,46)           108.9371         estimate D2E/DX2                !
 ! A88   A(16,15,45)           109.2909         estimate D2E/DX2                !
 ! A89   A(16,15,46)           108.1072         estimate D2E/DX2                !
 ! A90   A(45,15,46)           107.8333         estimate D2E/DX2                !
 ! A91   A(15,16,47)           110.4013         estimate D2E/DX2                !
 ! A92   A(15,16,48)           110.6049         estimate D2E/DX2                !
 ! A93   A(15,16,49)           109.4573         estimate D2E/DX2                !
 ! A94   A(47,16,48)           109.3125         estimate D2E/DX2                !
 ! A95   A(47,16,49)           108.6991         estimate D2E/DX2                !
 ! A96   A(48,16,49)           108.3156         estimate D2E/DX2                !
 ! A97   A(12,17,18)           112.2566         estimate D2E/DX2                !
 ! A98   A(12,17,50)           109.9699         estimate D2E/DX2                !
 ! A99   A(12,17,51)           110.3277         estimate D2E/DX2                !
 ! A100  A(18,17,50)           107.6052         estimate D2E/DX2                !
 ! A101  A(18,17,51)           108.9855         estimate D2E/DX2                !
 ! A102  A(50,17,51)           107.5463         estimate D2E/DX2                !
 ! A103  A(17,18,52)           110.4537         estimate D2E/DX2                !
 ! A104  A(17,18,53)           110.5658         estimate D2E/DX2                !
 ! A105  A(17,18,54)           109.57           estimate D2E/DX2                !
 ! A106  A(52,18,53)           109.4477         estimate D2E/DX2                !
 ! A107  A(52,18,54)           108.2491         estimate D2E/DX2                !
 ! A108  A(53,18,54)           108.4986         estimate D2E/DX2                !
 ! A109  A(5,19,20)            104.9398         estimate D2E/DX2                !
 ! A110  A(5,19,21)            116.1052         estimate D2E/DX2                !
 ! A111  A(5,19,55)            106.9505         estimate D2E/DX2                !
 ! A112  A(20,19,21)           113.4041         estimate D2E/DX2                !
 ! A113  A(20,19,55)           107.4117         estimate D2E/DX2                !
 ! A114  A(21,19,55)           107.5673         estimate D2E/DX2                !
 ! A115  A(3,20,19)            105.7784         estimate D2E/DX2                !
 ! A116  A(3,20,56)            111.042          estimate D2E/DX2                !
 ! A117  A(3,20,57)            110.8994         estimate D2E/DX2                !
 ! A118  A(19,20,56)           109.1837         estimate D2E/DX2                !
 ! A119  A(19,20,57)           111.0844         estimate D2E/DX2                !
 ! A120  A(56,20,57)           108.8288         estimate D2E/DX2                !
 ! A121  A(19,21,22)           112.1463         estimate D2E/DX2                !
 ! A122  A(19,21,58)           109.1799         estimate D2E/DX2                !
 ! A123  A(19,21,59)           110.6425         estimate D2E/DX2                !
 ! A124  A(22,21,58)           108.004          estimate D2E/DX2                !
 ! A125  A(22,21,59)           108.3881         estimate D2E/DX2                !
 ! A126  A(58,21,59)           108.3741         estimate D2E/DX2                !
 ! A127  A(21,22,60)           110.5773         estimate D2E/DX2                !
 ! A128  A(21,22,61)           109.3678         estimate D2E/DX2                !
 ! A129  A(21,22,62)           110.6355         estimate D2E/DX2                !
 ! A130  A(60,22,61)           108.2662         estimate D2E/DX2                !
 ! A131  A(60,22,62)           109.581          estimate D2E/DX2                !
 ! A132  A(61,22,62)           108.3501         estimate D2E/DX2                !
 ! D1    D(23,1,2,3)          -171.7227         estimate D2E/DX2                !
 ! D2    D(23,1,2,26)           65.4735         estimate D2E/DX2                !
 ! D3    D(23,1,2,27)          -51.4059         estimate D2E/DX2                !
 ! D4    D(24,1,2,3)           -52.4222         estimate D2E/DX2                !
 ! D5    D(24,1,2,26)         -175.226          estimate D2E/DX2                !
 ! D6    D(24,1,2,27)           67.8946         estimate D2E/DX2                !
 ! D7    D(25,1,2,3)            68.8182         estimate D2E/DX2                !
 ! D8    D(25,1,2,26)          -53.9856         estimate D2E/DX2                !
 ! D9    D(25,1,2,27)         -170.865          estimate D2E/DX2                !
 ! D10   D(1,2,3,4)            177.2903         estimate D2E/DX2                !
 ! D11   D(1,2,3,20)           -60.8606         estimate D2E/DX2                !
 ! D12   D(1,2,3,28)            56.8671         estimate D2E/DX2                !
 ! D13   D(26,2,3,4)           -60.5627         estimate D2E/DX2                !
 ! D14   D(26,2,3,20)           61.2864         estimate D2E/DX2                !
 ! D15   D(26,2,3,28)          179.0142         estimate D2E/DX2                !
 ! D16   D(27,2,3,4)            59.1437         estimate D2E/DX2                !
 ! D17   D(27,2,3,20)         -179.0072         estimate D2E/DX2                !
 ! D18   D(27,2,3,28)          -61.2795         estimate D2E/DX2                !
 ! D19   D(2,3,4,5)            116.9111         estimate D2E/DX2                !
 ! D20   D(2,3,4,11)           -13.9363         estimate D2E/DX2                !
 ! D21   D(2,3,4,29)          -130.3511         estimate D2E/DX2                !
 ! D22   D(20,3,4,5)            -7.3887         estimate D2E/DX2                !
 ! D23   D(20,3,4,11)         -138.2361         estimate D2E/DX2                !
 ! D24   D(20,3,4,29)          105.349          estimate D2E/DX2                !
 ! D25   D(28,3,4,5)          -122.723          estimate D2E/DX2                !
 ! D26   D(28,3,4,11)          106.4296         estimate D2E/DX2                !
 ! D27   D(28,3,4,29)           -9.9853         estimate D2E/DX2                !
 ! D28   D(2,3,20,19)         -144.1498         estimate D2E/DX2                !
 ! D29   D(2,3,20,56)          -25.8188         estimate D2E/DX2                !
 ! D30   D(2,3,20,57)           95.3159         estimate D2E/DX2                !
 ! D31   D(4,3,20,19)          -16.2648         estimate D2E/DX2                !
 ! D32   D(4,3,20,56)          102.0662         estimate D2E/DX2                !
 ! D33   D(4,3,20,57)         -136.799          estimate D2E/DX2                !
 ! D34   D(28,3,20,19)          98.6052         estimate D2E/DX2                !
 ! D35   D(28,3,20,56)        -143.0638         estimate D2E/DX2                !
 ! D36   D(28,3,20,57)         -21.9291         estimate D2E/DX2                !
 ! D37   D(3,4,5,6)            -96.5309         estimate D2E/DX2                !
 ! D38   D(3,4,5,19)            27.5844         estimate D2E/DX2                !
 ! D39   D(3,4,5,30)           139.3103         estimate D2E/DX2                !
 ! D40   D(11,4,5,6)            32.8084         estimate D2E/DX2                !
 ! D41   D(11,4,5,19)          156.9237         estimate D2E/DX2                !
 ! D42   D(11,4,5,30)          -91.3503         estimate D2E/DX2                !
 ! D43   D(29,4,5,6)           150.6182         estimate D2E/DX2                !
 ! D44   D(29,4,5,19)          -85.2665         estimate D2E/DX2                !
 ! D45   D(29,4,5,30)           26.4594         estimate D2E/DX2                !
 ! D46   D(3,4,11,10)         -168.5498         estimate D2E/DX2                !
 ! D47   D(3,4,11,39)          -50.8956         estimate D2E/DX2                !
 ! D48   D(3,4,11,40)           62.2732         estimate D2E/DX2                !
 ! D49   D(5,4,11,10)           66.3855         estimate D2E/DX2                !
 ! D50   D(5,4,11,39)         -175.9603         estimate D2E/DX2                !
 ! D51   D(5,4,11,40)          -62.7915         estimate D2E/DX2                !
 ! D52   D(29,4,11,10)         -51.7233         estimate D2E/DX2                !
 ! D53   D(29,4,11,39)          65.9308         estimate D2E/DX2                !
 ! D54   D(29,4,11,40)         179.0996         estimate D2E/DX2                !
 ! D55   D(4,5,6,7)            -70.9719         estimate D2E/DX2                !
 ! D56   D(4,5,6,31)           170.5644         estimate D2E/DX2                !
 ! D57   D(4,5,6,32)            54.2314         estimate D2E/DX2                !
 ! D58   D(19,5,6,7)           170.9186         estimate D2E/DX2                !
 ! D59   D(19,5,6,31)           52.4549         estimate D2E/DX2                !
 ! D60   D(19,5,6,32)          -63.8781         estimate D2E/DX2                !
 ! D61   D(30,5,6,7)            54.312          estimate D2E/DX2                !
 ! D62   D(30,5,6,31)          -64.1517         estimate D2E/DX2                !
 ! D63   D(30,5,6,32)          179.5153         estimate D2E/DX2                !
 ! D64   D(4,5,19,20)          -38.1447         estimate D2E/DX2                !
 ! D65   D(4,5,19,21)         -164.1995         estimate D2E/DX2                !
 ! D66   D(4,5,19,55)           75.7523         estimate D2E/DX2                !
 ! D67   D(6,5,19,20)           86.5239         estimate D2E/DX2                !
 ! D68   D(6,5,19,21)          -39.531          estimate D2E/DX2                !
 ! D69   D(6,5,19,55)         -159.5791         estimate D2E/DX2                !
 ! D70   D(30,5,19,20)        -154.4642         estimate D2E/DX2                !
 ! D71   D(30,5,19,21)          79.481          estimate D2E/DX2                !
 ! D72   D(30,5,19,55)         -40.5671         estimate D2E/DX2                !
 ! D73   D(5,6,7,8)            -31.931          estimate D2E/DX2                !
 ! D74   D(5,6,7,33)            96.37           estimate D2E/DX2                !
 ! D75   D(5,6,7,34)          -152.229          estimate D2E/DX2                !
 ! D76   D(31,6,7,8)            88.3094         estimate D2E/DX2                !
 ! D77   D(31,6,7,33)         -143.3896         estimate D2E/DX2                !
 ! D78   D(31,6,7,34)          -31.9886         estimate D2E/DX2                !
 ! D79   D(32,6,7,8)          -157.5736         estimate D2E/DX2                !
 ! D80   D(32,6,7,33)          -29.2726         estimate D2E/DX2                !
 ! D81   D(32,6,7,34)           82.1284         estimate D2E/DX2                !
 ! D82   D(6,7,8,9)             76.7369         estimate D2E/DX2                !
 ! D83   D(6,7,8,12)          -161.2302         estimate D2E/DX2                !
 ! D84   D(6,7,8,35)           -44.1102         estimate D2E/DX2                !
 ! D85   D(33,7,8,9)           -52.2661         estimate D2E/DX2                !
 ! D86   D(33,7,8,12)           69.7668         estimate D2E/DX2                !
 ! D87   D(33,7,8,35)         -173.1132         estimate D2E/DX2                !
 ! D88   D(34,7,8,9)          -164.5467         estimate D2E/DX2                !
 ! D89   D(34,7,8,12)          -42.5138         estimate D2E/DX2                !
 ! D90   D(34,7,8,35)           74.6063         estimate D2E/DX2                !
 ! D91   D(7,8,9,10)            20.5277         estimate D2E/DX2                !
 ! D92   D(7,8,9,14)           142.2569         estimate D2E/DX2                !
 ! D93   D(7,8,9,36)          -101.8805         estimate D2E/DX2                !
 ! D94   D(12,8,9,10)         -105.1959         estimate D2E/DX2                !
 ! D95   D(12,8,9,14)           16.5333         estimate D2E/DX2                !
 ! D96   D(12,8,9,36)          132.3959         estimate D2E/DX2                !
 ! D97   D(35,8,9,10)          141.386          estimate D2E/DX2                !
 ! D98   D(35,8,9,14)          -96.8848         estimate D2E/DX2                !
 ! D99   D(35,8,9,36)           18.9778         estimate D2E/DX2                !
 ! D100  D(7,8,12,13)         -160.6786         estimate D2E/DX2                !
 ! D101  D(7,8,12,17)           77.6463         estimate D2E/DX2                !
 ! D102  D(7,8,12,41)          -44.6057         estimate D2E/DX2                !
 ! D103  D(9,8,12,13)          -32.7306         estimate D2E/DX2                !
 ! D104  D(9,8,12,17)         -154.4057         estimate D2E/DX2                !
 ! D105  D(9,8,12,41)           83.3424         estimate D2E/DX2                !
 ! D106  D(35,8,12,13)          81.4991         estimate D2E/DX2                !
 ! D107  D(35,8,12,17)         -40.176          estimate D2E/DX2                !
 ! D108  D(35,8,12,41)        -162.4279         estimate D2E/DX2                !
 ! D109  D(8,9,10,11)          -63.8917         estimate D2E/DX2                !
 ! D110  D(8,9,10,37)           60.8533         estimate D2E/DX2                !
 ! D111  D(8,9,10,38)          174.8872         estimate D2E/DX2                !
 ! D112  D(14,9,10,11)         176.2539         estimate D2E/DX2                !
 ! D113  D(14,9,10,37)         -59.001          estimate D2E/DX2                !
 ! D114  D(14,9,10,38)          55.0328         estimate D2E/DX2                !
 ! D115  D(36,9,10,11)          59.2694         estimate D2E/DX2                !
 ! D116  D(36,9,10,37)        -175.9855         estimate D2E/DX2                !
 ! D117  D(36,9,10,38)         -61.9517         estimate D2E/DX2                !
 ! D118  D(8,9,14,13)            5.8816         estimate D2E/DX2                !
 ! D119  D(8,9,14,15)          129.9076         estimate D2E/DX2                !
 ! D120  D(8,9,14,44)         -109.6133         estimate D2E/DX2                !
 ! D121  D(10,9,14,13)         132.7489         estimate D2E/DX2                !
 ! D122  D(10,9,14,15)        -103.2251         estimate D2E/DX2                !
 ! D123  D(10,9,14,44)          17.254          estimate D2E/DX2                !
 ! D124  D(36,9,14,13)        -110.6123         estimate D2E/DX2                !
 ! D125  D(36,9,14,15)          13.4138         estimate D2E/DX2                !
 ! D126  D(36,9,14,44)         133.8929         estimate D2E/DX2                !
 ! D127  D(9,10,11,4)          -30.0041         estimate D2E/DX2                !
 ! D128  D(9,10,11,39)        -149.1312         estimate D2E/DX2                !
 ! D129  D(9,10,11,40)          98.9564         estimate D2E/DX2                !
 ! D130  D(37,10,11,4)        -155.4105         estimate D2E/DX2                !
 ! D131  D(37,10,11,39)         85.4625         estimate D2E/DX2                !
 ! D132  D(37,10,11,40)        -26.45           estimate D2E/DX2                !
 ! D133  D(38,10,11,4)          91.024          estimate D2E/DX2                !
 ! D134  D(38,10,11,39)        -28.1031         estimate D2E/DX2                !
 ! D135  D(38,10,11,40)       -140.0155         estimate D2E/DX2                !
 ! D136  D(8,12,13,14)          36.6528         estimate D2E/DX2                !
 ! D137  D(8,12,13,42)         -82.2522         estimate D2E/DX2                !
 ! D138  D(8,12,13,43)         156.9848         estimate D2E/DX2                !
 ! D139  D(17,12,13,14)        159.0768         estimate D2E/DX2                !
 ! D140  D(17,12,13,42)         40.1718         estimate D2E/DX2                !
 ! D141  D(17,12,13,43)        -80.5912         estimate D2E/DX2                !
 ! D142  D(41,12,13,14)        -79.7137         estimate D2E/DX2                !
 ! D143  D(41,12,13,42)        161.3814         estimate D2E/DX2                !
 ! D144  D(41,12,13,43)         40.6184         estimate D2E/DX2                !
 ! D145  D(8,12,17,18)        -179.759          estimate D2E/DX2                !
 ! D146  D(8,12,17,50)         -59.9955         estimate D2E/DX2                !
 ! D147  D(8,12,17,51)          58.4735         estimate D2E/DX2                !
 ! D148  D(13,12,17,18)         63.219          estimate D2E/DX2                !
 ! D149  D(13,12,17,50)       -177.0175         estimate D2E/DX2                !
 ! D150  D(13,12,17,51)        -58.5486         estimate D2E/DX2                !
 ! D151  D(41,12,17,18)        -57.6259         estimate D2E/DX2                !
 ! D152  D(41,12,17,50)         62.1376         estimate D2E/DX2                !
 ! D153  D(41,12,17,51)       -179.3934         estimate D2E/DX2                !
 ! D154  D(12,13,14,9)         -26.3733         estimate D2E/DX2                !
 ! D155  D(12,13,14,15)       -150.061          estimate D2E/DX2                !
 ! D156  D(12,13,14,44)         91.381          estimate D2E/DX2                !
 ! D157  D(42,13,14,9)          92.2572         estimate D2E/DX2                !
 ! D158  D(42,13,14,15)        -31.4305         estimate D2E/DX2                !
 ! D159  D(42,13,14,44)       -149.9885         estimate D2E/DX2                !
 ! D160  D(43,13,14,9)        -146.76           estimate D2E/DX2                !
 ! D161  D(43,13,14,15)         89.5522         estimate D2E/DX2                !
 ! D162  D(43,13,14,44)        -29.0058         estimate D2E/DX2                !
 ! D163  D(9,14,15,16)         174.4439         estimate D2E/DX2                !
 ! D164  D(9,14,15,45)         -63.4246         estimate D2E/DX2                !
 ! D165  D(9,14,15,46)          54.7086         estimate D2E/DX2                !
 ! D166  D(13,14,15,16)        -65.1514         estimate D2E/DX2                !
 ! D167  D(13,14,15,45)         56.98           estimate D2E/DX2                !
 ! D168  D(13,14,15,46)        175.1132         estimate D2E/DX2                !
 ! D169  D(44,14,15,16)         52.7083         estimate D2E/DX2                !
 ! D170  D(44,14,15,45)        174.8397         estimate D2E/DX2                !
 ! D171  D(44,14,15,46)        -67.0271         estimate D2E/DX2                !
 ! D172  D(14,15,16,47)        -57.3524         estimate D2E/DX2                !
 ! D173  D(14,15,16,48)         63.7656         estimate D2E/DX2                !
 ! D174  D(14,15,16,49)       -176.967          estimate D2E/DX2                !
 ! D175  D(45,15,16,47)        179.9829         estimate D2E/DX2                !
 ! D176  D(45,15,16,48)        -58.8991         estimate D2E/DX2                !
 ! D177  D(45,15,16,49)         60.3683         estimate D2E/DX2                !
 ! D178  D(46,15,16,47)         62.865          estimate D2E/DX2                !
 ! D179  D(46,15,16,48)       -176.017          estimate D2E/DX2                !
 ! D180  D(46,15,16,49)        -56.7496         estimate D2E/DX2                !
 ! D181  D(12,17,18,52)        -70.1105         estimate D2E/DX2                !
 ! D182  D(12,17,18,53)         51.1863         estimate D2E/DX2                !
 ! D183  D(12,17,18,54)        170.7264         estimate D2E/DX2                !
 ! D184  D(50,17,18,52)        168.7573         estimate D2E/DX2                !
 ! D185  D(50,17,18,53)        -69.9459         estimate D2E/DX2                !
 ! D186  D(50,17,18,54)         49.5943         estimate D2E/DX2                !
 ! D187  D(51,17,18,52)         52.4198         estimate D2E/DX2                !
 ! D188  D(51,17,18,53)        173.7166         estimate D2E/DX2                !
 ! D189  D(51,17,18,54)        -66.7432         estimate D2E/DX2                !
 ! D190  D(5,19,20,3)           34.1006         estimate D2E/DX2                !
 ! D191  D(5,19,20,56)         -85.4609         estimate D2E/DX2                !
 ! D192  D(5,19,20,57)         154.5142         estimate D2E/DX2                !
 ! D193  D(21,19,20,3)         161.8154         estimate D2E/DX2                !
 ! D194  D(21,19,20,56)         42.2539         estimate D2E/DX2                !
 ! D195  D(21,19,20,57)        -77.771          estimate D2E/DX2                !
 ! D196  D(55,19,20,3)         -79.4721         estimate D2E/DX2                !
 ! D197  D(55,19,20,56)        160.9664         estimate D2E/DX2                !
 ! D198  D(55,19,20,57)         40.9414         estimate D2E/DX2                !
 ! D199  D(5,19,21,22)        -168.2895         estimate D2E/DX2                !
 ! D200  D(5,19,21,58)         -48.6273         estimate D2E/DX2                !
 ! D201  D(5,19,21,59)          70.5612         estimate D2E/DX2                !
 ! D202  D(20,19,21,22)         70.0479         estimate D2E/DX2                !
 ! D203  D(20,19,21,58)       -170.2899         estimate D2E/DX2                !
 ! D204  D(20,19,21,59)        -51.1015         estimate D2E/DX2                !
 ! D205  D(55,19,21,22)        -48.5749         estimate D2E/DX2                !
 ! D206  D(55,19,21,58)         71.0874         estimate D2E/DX2                !
 ! D207  D(55,19,21,59)       -169.7242         estimate D2E/DX2                !
 ! D208  D(19,21,22,60)        -63.5975         estimate D2E/DX2                !
 ! D209  D(19,21,22,61)        177.2691         estimate D2E/DX2                !
 ! D210  D(19,21,22,62)         57.9966         estimate D2E/DX2                !
 ! D211  D(58,21,22,60)        176.0552         estimate D2E/DX2                !
 ! D212  D(58,21,22,61)         56.9218         estimate D2E/DX2                !
 ! D213  D(58,21,22,62)        -62.3506         estimate D2E/DX2                !
 ! D214  D(59,21,22,60)         58.841          estimate D2E/DX2                !
 ! D215  D(59,21,22,61)        -60.2925         estimate D2E/DX2                !
 ! D216  D(59,21,22,62)       -179.5649         estimate D2E/DX2                !
 --------------------------------------------------------------------------------
 Trust Radius=5.00D-02 FncErr=1.00D-07 GrdErr=1.00D-06 EigMax=2.50D+02 EigMin=1.00D-04
 Number of steps in this run=    372 maximum allowed number of steps=    372.
 GradGradGradGradGradGradGradGradGradGradGradGradGradGradGradGradGradGrad

 Stoichiometry    C22H40
 Framework group  C1[X(C22H40)]
 Deg. of freedom   180
 Full point group                 C1      NOp   1
 Largest Abelian subgroup         C1      NOp   1
 Largest concise Abelian subgroup C1      NOp   1
                         Standard orientation:                         
 ---------------------------------------------------------------------
 Center     Atomic      Atomic             Coordinates (Angstroms)
 Number     Number       Type             X           Y           Z
 ---------------------------------------------------------------------
      1          6           0       -5.179959   -1.908104   -1.383936
      2          6           0       -3.659159   -1.729866   -1.338263
      3          6           0       -3.166348   -1.217114    0.042851
      4          6           0       -1.617313   -1.059601    0.227636
      5          6           0       -1.370705    0.454372    0.471820
      6          6           0       -0.963573    1.261562   -0.801354
      7          6           0        0.454641    1.006608   -1.377791
      8          6           0        1.534001    0.647568   -0.327121
      9          6           0        1.500436   -0.809385    0.229172
     10          6           0        0.763148   -1.880257   -0.622208
     11          6           0       -0.762356   -1.750857   -0.865330
     12          6           0        2.963957    0.854775   -0.851930
     13          6           0        3.823548    0.013722    0.084359
     14          6           0        2.989056   -1.226555    0.394236
     15          6           0        3.282317   -1.813317    1.792987
     16          6           0        4.709632   -2.347874    1.910569
     17          6           0        3.399233    2.341337   -0.860124
     18          6           0        4.821927    2.525532   -1.391013
     19          6           0       -2.696929    0.921529    1.108001
     20          6           0       -3.777500    0.152927    0.369137
     21          6           0       -2.938285    2.449048    1.134195
     22          6           0       -4.119930    2.830385    2.025086
     23          1           0       -5.466925   -2.414245   -2.331526
     24          1           0       -5.520713   -2.536715   -0.532056
     25          1           0       -5.696793   -0.924723   -1.344139
     26          1           0       -3.348228   -1.029852   -2.144720
     27          1           0       -3.222667   -2.727542   -1.550086
     28          1           0       -3.520249   -1.944257    0.810498
     29          1           0       -1.360305   -1.574995    1.181823
     30          1           0       -0.608460    0.612678    1.257674
     31          1           0       -0.981752    2.342248   -0.550332
     32          1           0       -1.715665    1.106407   -1.605399
     33          1           0        0.447536    0.272253   -2.205354
     34          1           0        0.750629    1.947054   -1.889081
     35          1           0        1.410188    1.341807    0.535974
     36          1           0        1.031548   -0.801292    1.235215
     37          1           0        1.258720   -1.962661   -1.613423
     38          1           0        0.928394   -2.856983   -0.114589
     39          1           0       -1.120897   -2.798385   -0.952810
     40          1           0       -0.969075   -1.307100   -1.857639
     41          1           0        3.041427    0.438634   -1.883764
     42          1           0        4.035055    0.581463    1.018380
     43          1           0        4.787229   -0.263523   -0.397075
     44          1           0        3.260033   -1.996213   -0.366432
     45          1           0        3.112932   -1.042608    2.576592
     46          1           0        2.581042   -2.654857    1.985679
     47          1           0        4.898860   -3.120612    1.135185
     48          1           0        5.445591   -1.524991    1.796016
     49          1           0        4.851625   -2.806064    2.911807
     50          1           0        2.719879    2.931509   -1.509048
     51          1           0        3.337606    2.767945    0.166090
     52          1           0        5.560900    2.125104   -0.666745
     53          1           0        4.943935    2.009891   -2.367006
     54          1           0        5.027695    3.606581   -1.535721
     55          1           0       -2.695074    0.562673    2.164606
     56          1           0       -4.046066    0.702004   -0.560210
     57          1           0       -4.689167    0.041461    0.996366
     58          1           0       -2.030700    2.955790    1.531145
     59          1           0       -3.133874    2.832818    0.108565
     60          1           0       -5.063213    2.403816    1.625559
     61          1           0       -4.220904    3.936398    2.049684
     62          1           0       -3.959126    2.470458    3.064416
 ---------------------------------------------------------------------
 Rotational constants (GHZ):           0.3971761           0.1475383           0.1298410
 Standard basis: 6-31G(d,p) (6D, 7F)
 There are   530 symmetry adapted cartesian basis functions of A   symmetry.
 There are   530 symmetry adapted basis functions of A   symmetry.
   530 basis functions,   896 primitive gaussians,   530 cartesian basis functions
    86 alpha electrons       86 beta electrons
       nuclear repulsion energy      1999.0091094058 Hartrees.
 NAtoms=   62 NActive=   62 NUniq=   62 SFac= 1.00D+00 NAtFMM=   60 NAOKFM=T Big=T
 Integral buffers will be    131072 words long.
 Raffenetti 2 integral format.
 Two-electron integral symmetry is turned on.
 One-electron integrals computed using PRISM.
 NBasis=   530 RedAO= T EigKep=  1.43D-03  NBF=   530
 NBsUse=   530 1.00D-06 EigRej= -1.00D+00 NBFU=   530
 ExpMin= 1.61D-01 ExpMax= 3.05D+03 ExpMxC= 4.57D+02 IAcc=3 IRadAn=         5 AccDes= 0.00D+00
 Harris functional with IExCor=  402 and IRadAn=       5 diagonalized for initial guess.
 HarFok:  IExCor=  402 AccDes= 0.00D+00 IRadAn=         5 IDoV= 1 UseB2=F ITyADJ=14
 ICtDFT=  3500011 ScaDFX=  1.000000  1.000000  1.000000  1.000000
 FoFCou: FMM=F IPFlag=           0 FMFlag=      100000 FMFlg1=        2001
         NFxFlg=           0 DoJE=T BraDBF=F KetDBF=T FulRan=T
         wScrn=  0.000000 ICntrl=       500 IOpCl=  0 I1Cent=   200000004 NGrid=           0
         NMat0=    1 NMatS0=      1 NMatT0=    0 NMatD0=    1 NMtDS0=    0 NMtDT0=    0
 Petite list used in FoFCou.
 Requested convergence on RMS density matrix=1.00D-08 within 128 cycles.
 Requested convergence on MAX density matrix=1.00D-06.
 Requested convergence on             energy=1.00D-06.
 No special actions if energy rises.
 Integral accuracy reduced to 1.0D-05 until final iterations.
 Initial convergence to 1.0D-05 achieved.  Increase integral accuracy.
 SCF Done:  E(RB3LYP) =  -862.491442239     A.U. after   12 cycles
            NFock= 12  Conv=0.58D-08     -V/T= 2.0107
 QCSCF skips out because SCF is already converged.

 **********************************************************************

            Population analysis using the SCF Density.

 **********************************************************************

 Orbital symmetries:
       Occupied  (A) (A) (A) (A) (A) (A) (A) (A) (A) (A) (A) (A)
                 (A) (A) (A) (A) (A) (A) (A) (A) (A) (A) (A) (A)
                 (A) (A) (A) (A) (A) (A) (A) (A) (A) (A) (A) (A)
                 (A) (A) (A) (A) (A) (A) (A) (A) (A) (A) (A) (A)
                 (A) (A) (A) (A) (A) (A) (A) (A) (A) (A) (A) (A)
                 (A) (A) (A) (A) (A) (A) (A) (A) (A) (A) (A) (A)
                 (A) (A) (A) (A) (A) (A) (A) (A) (A) (A) (A) (A)
                 (A) (A)
       Virtual   (A) (A) (A) (A) (A) (A) (A) (A) (A) (A) (A) (A)
                 (A) (A) (A) (A) (A) (A) (A) (A) (A) (A) (A) (A)
                 (A) (A) (A) (A) (A) (A) (A) (A) (A) (A) (A) (A)
                 (A) (A) (A) (A) (A) (A) (A) (A) (A) (A) (A) (A)
                 (A) (A) (A) (A) (A) (A) (A) (A) (A) (A) (A) (A)
                 (A) (A) (A) (A) (A) (A) (A) (A) (A) (A) (A) (A)
                 (A) (A) (A) (A) (A) (A) (A) (A) (A) (A) (A) (A)
                 (A) (A) (A) (A) (A) (A) (A) (A) (A) (A) (A) (A)
                 (A) (A) (A) (A) (A) (A) (A) (A) (A) (A) (A) (A)
                 (A) (A) (A) (A) (A) (A) (A) (A) (A) (A) (A) (A)
                 (A) (A) (A) (A) (A) (A) (A) (A) (A) (A) (A) (A)
                 (A) (A) (A) (A) (A) (A) (A) (A) (A) (A) (A) (A)
                 (A) (A) (A) (A) (A) (A) (A) (A) (A) (A) (A) (A)
                 (A) (A) (A) (A) (A) (A) (A) (A) (A) (A) (A) (A)
                 (A) (A) (A) (A) (A) (A) (A) (A) (A) (A) (A) (A)
                 (A) (A) (A) (A) (A) (A) (A) (A) (A) (A) (A) (A)
                 (A) (A) (A) (A) (A) (A) (A) (A) (A) (A) (A) (A)
                 (A) (A) (A) (A) (A) (A) (A) (A) (A) (A) (A) (A)
                 (A) (A) (A) (A) (A) (A) (A) (A) (A) (A) (A) (A)
                 (A) (A) (A) (A) (A) (A) (A) (A) (A) (A) (A) (A)
                 (A) (A) (A) (A) (A) (A) (A) (A) (A) (A) (A) (A)
                 (A) (A) (A) (A) (A) (A) (A) (A) (A) (A) (A) (A)
                 (A) (A) (A) (A) (A) (A) (A) (A) (A) (A) (A) (A)
                 (A) (A) (A) (A) (A) (A) (A) (A) (A) (A) (A) (A)
                 (A) (A) (A) (A) (A) (A) (A) (A) (A) (A) (A) (A)
                 (A) (A) (A) (A) (A) (A) (A) (A) (A) (A) (A) (A)
                 (A) (A) (A) (A) (A) (A) (A) (A) (A) (A) (A) (A)
                 (A) (A) (A) (A) (A) (A) (A) (A) (A) (A) (A) (A)
                 (A) (A) (A) (A) (A) (A) (A) (A) (A) (A) (A) (A)
                 (A) (A) (A) (A) (A) (A) (A) (A) (A) (A) (A) (A)
                 (A) (A) (A) (A) (A) (A) (A) (A) (A) (A) (A) (A)
                 (A) (A) (A) (A) (A) (A) (A) (A) (A) (A) (A) (A)
                 (A) (A) (A) (A) (A) (A) (A) (A) (A) (A) (A) (A)
                 (A) (A) (A) (A) (A) (A) (A) (A) (A) (A) (A) (A)
                 (A) (A) (A) (A) (A) (A) (A) (A) (A) (A) (A) (A)
                 (A) (A) (A) (A) (A) (A) (A) (A) (A) (A) (A) (A)
                 (A) (A) (A) (A) (A) (A) (A) (A) (A) (A) (A) (A)
 The electronic state is 1-A.
 Alpha  occ. eigenvalues --  -10.17777 -10.17759 -10.17706 -10.17702 -10.17698
 Alpha  occ. eigenvalues --  -10.17667 -10.17654 -10.17545 -10.17545 -10.17523
 Alpha  occ. eigenvalues --  -10.17470 -10.17449 -10.17429 -10.17408 -10.17388
 Alpha  occ. eigenvalues --  -10.17337 -10.17331 -10.17320 -10.17297 -10.17280
 Alpha  occ. eigenvalues --  -10.16877 -10.16801  -0.84906  -0.83844  -0.78211
 Alpha  occ. eigenvalues --   -0.77778  -0.77539  -0.74867  -0.74569  -0.72843
 Alpha  occ. eigenvalues --   -0.70089  -0.69367  -0.66740  -0.66111  -0.61908
 Alpha  occ. eigenvalues --   -0.61207  -0.61047  -0.58309  -0.57760  -0.56274
 Alpha  occ. eigenvalues --   -0.54808  -0.53254  -0.52759  -0.50088  -0.49038
 Alpha  occ. eigenvalues --   -0.46266  -0.45852  -0.45252  -0.44851  -0.43781
 Alpha  occ. eigenvalues --   -0.43649  -0.42244  -0.42127  -0.41894  -0.40798
 Alpha  occ. eigenvalues --   -0.40546  -0.40310  -0.39461  -0.39173  -0.38861
 Alpha  occ. eigenvalues --   -0.37934  -0.37452  -0.36721  -0.36389  -0.36046
 Alpha  occ. eigenvalues --   -0.35595  -0.35008  -0.34508  -0.33985  -0.33760
 Alpha  occ. eigenvalues --   -0.33592  -0.33401  -0.33155  -0.32417  -0.31292
 Alpha  occ. eigenvalues --   -0.30658  -0.30446  -0.30129  -0.29883  -0.29681
 Alpha  occ. eigenvalues --   -0.29210  -0.29157  -0.28662  -0.28176  -0.27625
 Alpha  occ. eigenvalues --   -0.27006
 Alpha virt. eigenvalues --    0.06316   0.07471   0.08339   0.09283   0.09668
 Alpha virt. eigenvalues --    0.10072   0.10289   0.10847   0.12051   0.12133
 Alpha virt. eigenvalues --    0.12464   0.12626   0.13209   0.14133   0.14362
 Alpha virt. eigenvalues --    0.14973   0.15437   0.15528   0.16136   0.16316
 Alpha virt. eigenvalues --    0.16444   0.16918   0.16958   0.17354   0.17577
 Alpha virt. eigenvalues --    0.17801   0.17932   0.18496   0.18653   0.19110
 Alpha virt. eigenvalues --    0.19365   0.19775   0.20166   0.20440   0.20724
 Alpha virt. eigenvalues --    0.20971   0.21289   0.21584   0.22463   0.23023
 Alpha virt. eigenvalues --    0.23295   0.23834   0.24408   0.24563   0.24883
 Alpha virt. eigenvalues --    0.25086   0.26190   0.26304   0.26538   0.27199
 Alpha virt. eigenvalues --    0.28007   0.28335   0.28975   0.29120   0.30027
 Alpha virt. eigenvalues --    0.31532   0.31838   0.32707   0.32956   0.34111
 Alpha virt. eigenvalues --    0.34772   0.36669   0.37205   0.40006   0.48940
 Alpha virt. eigenvalues --    0.50636   0.51052   0.51767   0.52166   0.52562
 Alpha virt. eigenvalues --    0.53238   0.53947   0.54490   0.54650   0.54817
 Alpha virt. eigenvalues --    0.55476   0.55952   0.57374   0.57521   0.58230
 Alpha virt. eigenvalues --    0.59096   0.59264   0.59912   0.60321   0.61196
 Alpha virt. eigenvalues --    0.61743   0.62498   0.63209   0.63950   0.64482
 Alpha virt. eigenvalues --    0.64918   0.65643   0.66543   0.66997   0.67933
 Alpha virt. eigenvalues --    0.68781   0.69000   0.70342   0.70931   0.71669
 Alpha virt. eigenvalues --    0.71816   0.73186   0.74632   0.75668   0.75978
 Alpha virt. eigenvalues --    0.76780   0.77568   0.77945   0.78634   0.79341
 Alpha virt. eigenvalues --    0.80036   0.80336   0.80749   0.81285   0.81396
 Alpha virt. eigenvalues --    0.82616   0.83019   0.84036   0.84299   0.84563
 Alpha virt. eigenvalues --    0.84999   0.85171   0.85529   0.85693   0.86053
 Alpha virt. eigenvalues --    0.86382   0.86748   0.86916   0.87567   0.87857
 Alpha virt. eigenvalues --    0.88000   0.88721   0.88950   0.89494   0.89617
 Alpha virt. eigenvalues --    0.90197   0.90763   0.91020   0.91106   0.91707
 Alpha virt. eigenvalues --    0.92591   0.92809   0.93080   0.93365   0.93993
 Alpha virt. eigenvalues --    0.94634   0.94797   0.95224   0.95272   0.95818
 Alpha virt. eigenvalues --    0.96665   0.97959   0.98503   0.99572   1.00107
 Alpha virt. eigenvalues --    1.00865   1.01587   1.02765   1.03666   1.04442
 Alpha virt. eigenvalues --    1.05860   1.05973   1.06228   1.07592   1.10094
 Alpha virt. eigenvalues --    1.10311   1.12015   1.15955   1.16317   1.18441
 Alpha virt. eigenvalues --    1.20209   1.20658   1.22327   1.26336   1.27510
 Alpha virt. eigenvalues --    1.29926   1.32074   1.32812   1.34790   1.37548
 Alpha virt. eigenvalues --    1.38432   1.40292   1.41477   1.44301   1.46159
 Alpha virt. eigenvalues --    1.48328   1.48471   1.49770   1.50174   1.50670
 Alpha virt. eigenvalues --    1.52020   1.53731   1.54568   1.56662   1.57758
 Alpha virt. eigenvalues --    1.58097   1.61539   1.62315   1.63338   1.64499
 Alpha virt. eigenvalues --    1.66208   1.66305   1.67999   1.68211   1.68696
 Alpha virt. eigenvalues --    1.68868   1.70214   1.70595   1.72221   1.72807
 Alpha virt. eigenvalues --    1.74952   1.75245   1.76828   1.77849   1.79081
 Alpha virt. eigenvalues --    1.79351   1.80612   1.81145   1.82052   1.82452
 Alpha virt. eigenvalues --    1.83410   1.84482   1.85366   1.85789   1.86077
 Alpha virt. eigenvalues --    1.86812   1.88295   1.88798   1.88853   1.89838
 Alpha virt. eigenvalues --    1.90505   1.91187   1.91686   1.92932   1.93526
 Alpha virt. eigenvalues --    1.94445   1.95913   1.97117   1.97286   1.98683
 Alpha virt. eigenvalues --    1.99651   2.00148   2.01079   2.01391   2.02016
 Alpha virt. eigenvalues --    2.03124   2.03364   2.03770   2.04416   2.04641
 Alpha virt. eigenvalues --    2.04833   2.05155   2.05408   2.05515   2.05864
 Alpha virt. eigenvalues --    2.06240   2.06653   2.07185   2.08254   2.08649
 Alpha virt. eigenvalues --    2.08794   2.09048   2.09645   2.09984   2.10322
 Alpha virt. eigenvalues --    2.12066   2.12664   2.13692   2.15050   2.15526
 Alpha virt. eigenvalues --    2.16344   2.17458   2.18254   2.19694   2.21633
 Alpha virt. eigenvalues --    2.22202   2.23019   2.23861   2.24328   2.25498
 Alpha virt. eigenvalues --    2.26208   2.26548   2.26924   2.27302   2.28195
 Alpha virt. eigenvalues --    2.28896   2.29011   2.29311   2.30575   2.31535
 Alpha virt. eigenvalues --    2.32022   2.32819   2.34399   2.35213   2.36665
 Alpha virt. eigenvalues --    2.37042   2.38364   2.38667   2.40249   2.40864
 Alpha virt. eigenvalues --    2.41543   2.42233   2.44647   2.45336   2.46537
 Alpha virt. eigenvalues --    2.47223   2.47508   2.48012   2.48384   2.48589
 Alpha virt. eigenvalues --    2.49913   2.50283   2.51117   2.52096   2.54441
 Alpha virt. eigenvalues --    2.55055   2.57021   2.57750   2.58708   2.58986
 Alpha virt. eigenvalues --    2.59269   2.59719   2.60623   2.60754   2.61280
 Alpha virt. eigenvalues --    2.62787   2.64588   2.65152   2.65935   2.66826
 Alpha virt. eigenvalues --    2.67716   2.69104   2.69334   2.69930   2.70055
 Alpha virt. eigenvalues --    2.70371   2.70820   2.71010   2.71670   2.72565
 Alpha virt. eigenvalues --    2.73784   2.74717   2.75162   2.75843   2.76545
 Alpha virt. eigenvalues --    2.77541   2.78210   2.78400   2.78662   2.79358
 Alpha virt. eigenvalues --    2.80163   2.80712   2.81539   2.82464   2.83118
 Alpha virt. eigenvalues --    2.84231   2.84829   2.85129   2.86190   2.86546
 Alpha virt. eigenvalues --    2.87857   2.88191   2.88581   2.88721   2.89179
 Alpha virt. eigenvalues --    2.89349   2.89723   2.90473   2.90540   2.90715
 Alpha virt. eigenvalues --    2.91376   2.91662   2.92418   2.95261   2.96037
 Alpha virt. eigenvalues --    2.97065   2.98479   2.99256   3.01297   3.03210
 Alpha virt. eigenvalues --    3.06229   3.10371   3.16121   3.16590   3.17510
 Alpha virt. eigenvalues --    3.18185   3.21318   3.23724   3.25147   3.26949
 Alpha virt. eigenvalues --    3.28198   3.28485   3.30226   3.30847   3.31698
 Alpha virt. eigenvalues --    3.32604   3.33023   3.33350   3.34340   3.36742
 Alpha virt. eigenvalues --    3.38479   3.39853   3.41956   3.42639   3.43262
 Alpha virt. eigenvalues --    3.43431   3.43700   3.44893   3.45829   3.46489
 Alpha virt. eigenvalues --    3.46970   3.48006   3.49486   3.50089   3.50922
 Alpha virt. eigenvalues --    3.51583   3.52482   3.52886   3.54085   3.54393
 Alpha virt. eigenvalues --    3.56217   3.58252   4.20472   4.29669   4.33408
 Alpha virt. eigenvalues --    4.35215   4.37144   4.42703   4.46250   4.48499
 Alpha virt. eigenvalues --    4.49338   4.53050   4.57182   4.57635   4.64659
 Alpha virt. eigenvalues --    4.65041   4.69852   4.70600   4.77729   4.80948
 Alpha virt. eigenvalues --    4.85861   4.88401   4.92729   4.98623
          Condensed to atoms (all electrons):
 Mulliken charges:
               1
     1  C   -0.317217
     2  C   -0.171271
     3  C   -0.062497
     4  C   -0.052083
     5  C   -0.062007
     6  C   -0.183847
     7  C   -0.190950
     8  C   -0.046587
     9  C   -0.051687
    10  C   -0.192318
    11  C   -0.189135
    12  C   -0.064828
    13  C   -0.179986
    14  C   -0.057361
    15  C   -0.174941
    16  C   -0.315992
    17  C   -0.170093
    18  C   -0.315067
    19  C   -0.067457
    20  C   -0.175362
    21  C   -0.171229
    22  C   -0.317764
    23  H    0.094762
    24  H    0.098040
    25  H    0.103708
    26  H    0.088140
    27  H    0.088821
    28  H    0.075650
    29  H    0.074412
    30  H    0.077946
    31  H    0.092903
    32  H    0.083024
    33  H    0.088207
    34  H    0.082811
    35  H    0.072254
    36  H    0.079071
    37  H    0.085058
    38  H    0.087698
    39  H    0.084988
    40  H    0.091728
    41  H    0.072583
    42  H    0.079819
    43  H    0.091018
    44  H    0.075167
    45  H    0.085458
    46  H    0.085998
    47  H    0.099211
    48  H    0.104566
    49  H    0.094791
    50  H    0.087667
    51  H    0.085570
    52  H    0.104575
    53  H    0.098882
    54  H    0.094249
    55  H    0.071872
    56  H    0.084893
    57  H    0.090929
    58  H    0.084747
    59  H    0.091237
    60  H    0.104076
    61  H    0.094752
    62  H    0.098400
 Sum of Mulliken charges =  -0.00000
 Mulliken charges with hydrogens summed into heavy atoms:
               1
     1  C   -0.020708
     2  C    0.005691
     3  C    0.013153
     4  C    0.022330
     5  C    0.015939
     6  C   -0.007920
     7  C   -0.019932
     8  C    0.025667
     9  C    0.027384
    10  C   -0.019562
    11  C   -0.012420
    12  C    0.007754
    13  C   -0.009149
    14  C    0.017806
    15  C   -0.003485
    16  C   -0.017424
    17  C    0.003144
    18  C   -0.017361
    19  C    0.004414
    20  C    0.000460
    21  C    0.004754
    22  C   -0.020536
 Electronic spatial extent (au):  <R**2>=           9394.3840
 Charge=              0.0000 electrons
 Dipole moment (field-independent basis, Debye):
    X=              0.0210    Y=             -0.0267    Z=              0.0285  Tot=              0.0443
 Quadrupole moment (field-independent basis, Debye-Ang):
   XX=           -147.2956   YY=           -143.4332   ZZ=           -142.4325
   XY=              0.3064   XZ=             -0.0785   YZ=             -0.0162
 Traceless Quadrupole moment (field-independent basis, Debye-Ang):
   XX=             -2.9085   YY=              0.9539   ZZ=              1.9546
   XY=              0.3064   XZ=             -0.0785   YZ=             -0.0162
 Octapole moment (field-independent basis, Debye-Ang**2):
  XXX=             -0.2023  YYY=             -1.1227  ZZZ=             -0.5048  XYY=             -1.1445
  XXY=              0.1057  XXZ=             -1.2741  XZZ=              0.6409  YZZ=             -1.0158
  YYZ=             -0.6171  XYZ=              7.9236
 Hexadecapole moment (field-independent basis, Debye-Ang**3):
 XXXX=          -9212.5444 YYYY=          -2739.0986 ZZZZ=          -1390.4928 XXXY=             -5.4222
 XXXZ=             -5.2852 YYYX=             11.1600 YYYZ=             -4.0019 ZZZX=              4.3809
 ZZZY=             -1.4129 XXYY=          -1989.7222 XXZZ=          -1740.6200 YYZZ=           -697.1245
 XXYZ=              1.9407 YYXZ=              3.7426 ZZXY=              8.2853
 N-N= 1.999009109406D+03 E-N=-5.990659709766D+03  KE= 8.533266618935D+02
 Calling FoFJK, ICntrl=      2127 FMM=T ISym2X=0 I1Cent= 0 IOpClX= 0 NMat=1 NMatS=1 NMatT=0.
 ***** Axes restored to original set *****
 -------------------------------------------------------------------
 Center     Atomic                   Forces (Hartrees/Bohr)
 Number     Number              X              Y              Z
 -------------------------------------------------------------------
      1        6           0.006546075    0.000795920    0.003752501
      2        6          -0.003324225   -0.006131900   -0.003516057
      3        6           0.007686108   -0.012871567    0.004031140
      4        6          -0.012224160   -0.008999890   -0.006707517
      5        6          -0.007115164    0.007180250    0.002698671
      6        6           0.002873373    0.003782229   -0.001936612
      7        6          -0.002841778    0.004628683    0.006298237
      8        6           0.009030860    0.005118228    0.004089819
      9        6           0.006396353   -0.006527946   -0.002018832
     10        6          -0.002210151   -0.001011242   -0.001433889
     11        6           0.007263133   -0.008487522    0.002646551
     12        6          -0.002064501    0.012577369    0.002698411
     13        6          -0.014768889   -0.000895274    0.002255980
     14        6          -0.003291137   -0.008452934   -0.008622839
     15        6           0.002937783   -0.006665526    0.002987227
     16        6          -0.005108889   -0.001413566   -0.006164528
     17        6           0.003732750   -0.001557498    0.007621270
     18        6          -0.006041802    0.005543643    0.000597390
     19        6           0.001053260    0.012343956   -0.005579048
     20        6           0.014314415    0.001660048   -0.002954938
     21        6          -0.005614626   -0.000924813   -0.003254081
     22        6           0.004961498    0.006757065   -0.001871903
     23        1           0.000150607    0.006143805   -0.009110304
     24        1          -0.000595403    0.005575449    0.009051630
     25        1          -0.002025249   -0.011132816   -0.001939280
     26        1           0.000533231   -0.006497921   -0.007145310
     27        1          -0.000889068    0.009702068    0.001379795
     28        1          -0.002374658    0.003683105    0.009373356
     29        1           0.002743354    0.003580190    0.007626317
     30        1          -0.000053124   -0.003020853    0.009640769
     31        1           0.003960255   -0.009425778   -0.000515116
     32        1          -0.005445853    0.003480992   -0.006441924
     33        1          -0.000360437    0.001354161   -0.009009423
     34        1          -0.000022533   -0.005465536   -0.005776238
     35        1          -0.000529326   -0.005881350    0.006268884
     36        1          -0.002704562   -0.001291587    0.008415620
     37        1           0.002205082    0.000454300   -0.008144908
     38        1          -0.001464547    0.008255630    0.004843996
     39        1           0.000178780    0.008551751    0.001129323
     40        1          -0.002250088    0.000154013   -0.008412935
     41        1           0.000671363    0.005433346   -0.006766073
     42        1           0.000070005   -0.004372570    0.007282291
     43        1           0.006401731    0.006025464   -0.008837162
     44        1           0.006044135    0.005076846   -0.006919502
     45        1           0.001515385   -0.006286306    0.006440975
     46        1          -0.003329814    0.008226812    0.000532726
     47        1          -0.001015452    0.007603579   -0.006691929
     48        1           0.004051451   -0.009318688   -0.001381776
     49        1          -0.002432566    0.001888319    0.009661730
     50        1          -0.002236080   -0.003232332   -0.006984526
     51        1           0.002583496   -0.005758135    0.007704671
     52        1           0.003989106    0.002146537    0.009421536
     53        1          -0.001630326    0.005730986   -0.007971265
     54        1          -0.001865816   -0.009648519   -0.001211203
     55        1          -0.001327391    0.002888256    0.008175709
     56        1           0.000194336   -0.004590135   -0.007386526
     57        1          -0.005620230    0.002582423    0.010856591
     58        1           0.006327155   -0.003529397    0.005869232
     59        1          -0.005387086   -0.003017424   -0.008811258
     60        1          -0.006792327    0.004766403   -0.006158944
     61        1           0.002122184   -0.009700328   -0.002956391
     62        1           0.004419991    0.002417526    0.009279885
 -------------------------------------------------------------------
 Cartesian Forces:  Max     0.014768889 RMS     0.005853130

 GradGradGradGradGradGradGradGradGradGradGradGradGradGradGradGradGradGrad
 Berny optimization.
 FormGI is forming the generalized inverse of G from B-inverse, IUseBI=4.
 Internal  Forces:  Max     0.011432171 RMS     0.003601571
 Search for a local minimum.
 Step number   1 out of a maximum of  372
 All quantities printed in internal units (Hartrees-Bohrs-Radians)
 Mixed Optimization -- RFO/linear search
 Second derivative matrix not updated -- first step.
 ITU=  0
     Eigenvalues ---    0.00230   0.00230   0.00230   0.00230   0.00230
     Eigenvalues ---    0.00274   0.00344   0.00346   0.00374   0.00387
     Eigenvalues ---    0.00393   0.00403   0.00491   0.00528   0.01195
     Eigenvalues ---    0.01408   0.01869   0.02052   0.02182   0.02453
     Eigenvalues ---    0.02736   0.02838   0.03185   0.03375   0.03496
     Eigenvalues ---    0.03532   0.03551   0.03558   0.03563   0.03595
     Eigenvalues ---    0.03601   0.03684   0.03857   0.03883   0.03923
     Eigenvalues ---    0.04247   0.04273   0.04331   0.04376   0.04394
     Eigenvalues ---    0.04607   0.04661   0.04757   0.04811   0.04828
     Eigenvalues ---    0.04838   0.04846   0.04974   0.05041   0.05100
     Eigenvalues ---    0.05190   0.05320   0.05387   0.05443   0.05553
     Eigenvalues ---    0.05585   0.05594   0.05612   0.05658   0.05707
     Eigenvalues ---    0.05730   0.05755   0.05770   0.05789   0.05919
     Eigenvalues ---    0.06160   0.06318   0.07137   0.07212   0.07364
     Eigenvalues ---    0.07741   0.07824   0.08170   0.08186   0.08209
     Eigenvalues ---    0.08215   0.08657   0.08913   0.09056   0.09314
     Eigenvalues ---    0.09470   0.10065   0.11877   0.12080   0.12084
     Eigenvalues ---    0.12093   0.12114   0.12119   0.12500   0.12914
     Eigenvalues ---    0.13320   0.14203   0.14456   0.15280   0.16000
     Eigenvalues ---    0.16000   0.16000   0.16000   0.16000   0.16000
     Eigenvalues ---    0.16000   0.16000   0.16000   0.16000   0.16000
     Eigenvalues ---    0.16000   0.16010   0.17432   0.18136   0.18646
     Eigenvalues ---    0.19279   0.20751   0.21936   0.21951   0.21968
     Eigenvalues ---    0.21976   0.22878   0.24162   0.24653   0.24920
     Eigenvalues ---    0.25428   0.26126   0.26548   0.27119   0.27359
     Eigenvalues ---    0.27427   0.27542   0.27669   0.27736   0.27808
     Eigenvalues ---    0.27934   0.28087   0.28398   0.28832   0.28910
     Eigenvalues ---    0.29250   0.29394   0.29456   0.29547   0.29590
     Eigenvalues ---    0.31985   0.32021   0.32047   0.32074   0.32123
     Eigenvalues ---    0.32126   0.32252   0.32275   0.32278   0.32317
     Eigenvalues ---    0.32346   0.32352   0.32354   0.32363   0.32364
     Eigenvalues ---    0.32369   0.32369   0.32381   0.32393   0.32405
     Eigenvalues ---    0.32427   0.32433   0.32467   0.32502   0.32506
     Eigenvalues ---    0.32533   0.32535   0.32541   0.32577   0.32603
     Eigenvalues ---    0.32607   0.32610   0.32635   0.32642   0.32653
     Eigenvalues ---    0.32656   0.32664   0.32974   0.32981   0.33007
 RFO step:  Lambda=-2.19851925D-02 EMin= 2.30000000D-03
 Linear search not attempted -- first point.
 Maximum step size (   0.050) exceeded in Quadratic search.
    -- Step size scaled by   0.184
 Iteration  1 RMS(Cart)=  0.00900613 RMS(Int)=  0.00001748
 Iteration  2 RMS(Cart)=  0.00003775 RMS(Int)=  0.00000456
 Iteration  3 RMS(Cart)=  0.00000000 RMS(Int)=  0.00000456
 Variable       Old X    -DE/DX   Delta X   Delta X   Delta X     New X
                                 (Linear)    (Quad)   (Total)
    R1        2.89485   0.00388   0.00000   0.00227   0.00227   2.89713
    R2        2.10130  -0.01053   0.00000  -0.00561  -0.00561   2.09569
    R3        2.10173  -0.01035   0.00000  -0.00552  -0.00552   2.09622
    R4        2.10069  -0.01086   0.00000  -0.00578  -0.00578   2.09491
    R5        2.93562  -0.00560   0.00000  -0.00349  -0.00349   2.93213
    R6        2.10182  -0.00939   0.00000  -0.00501  -0.00501   2.09682
    R7        2.09645  -0.00836   0.00000  -0.00442  -0.00442   2.09203
    R8        2.96299   0.00749   0.00000   0.00488   0.00487   2.96787
    R9        2.90120   0.00823   0.00000   0.00507   0.00507   2.90627
   R10        2.10708  -0.00993   0.00000  -0.00534  -0.00534   2.10174
   R11        2.93520   0.00537   0.00000   0.00294   0.00293   2.93813
   R12        2.92960  -0.00651   0.00000  -0.00423  -0.00423   2.92537
   R13        2.10614  -0.00884   0.00000  -0.00475  -0.00475   2.10139
   R14        2.95081  -0.00858   0.00000  -0.00547  -0.00547   2.94534
   R15        2.91645   0.00842   0.00000   0.00479   0.00479   2.92124
   R16        2.09039  -0.00716   0.00000  -0.00375  -0.00375   2.08664
   R17        2.93280   0.00186   0.00000   0.00123   0.00123   2.93403
   R18        2.09685  -0.00921   0.00000  -0.00487  -0.00487   2.09198
   R19        2.10109  -0.00895   0.00000  -0.00477  -0.00477   2.09632
   R20        2.92623  -0.00647   0.00000  -0.00406  -0.00406   2.92217
   R21        2.09085  -0.00713   0.00000  -0.00374  -0.00374   2.08712
   R22        2.09876  -0.00751   0.00000  -0.00398  -0.00398   2.09477
   R23        2.94779   0.00422   0.00000   0.00253   0.00252   2.95032
   R24        2.90498   0.00696   0.00000   0.00407   0.00407   2.90905
   R25        2.10620  -0.00860   0.00000  -0.00462  -0.00462   2.10158
   R26        2.93681  -0.00548   0.00000  -0.00314  -0.00314   2.93367
   R27        2.93806   0.00540   0.00000   0.00334   0.00334   2.94141
   R28        2.09755  -0.00887   0.00000  -0.00470  -0.00470   2.09285
   R29        2.92939   0.00214   0.00000   0.00136   0.00136   2.93075
   R30        2.09997  -0.00826   0.00000  -0.00439  -0.00439   2.09558
   R31        2.10344  -0.00921   0.00000  -0.00492  -0.00492   2.09852
   R32        2.09880  -0.00806   0.00000  -0.00428  -0.00428   2.09452
   R33        2.09097  -0.00822   0.00000  -0.00431  -0.00431   2.08667
   R34        2.88015   0.00921   0.00000   0.00539   0.00540   2.88554
   R35        2.92719  -0.00512   0.00000  -0.00315  -0.00315   2.92404
   R36        2.10758  -0.00853   0.00000  -0.00459  -0.00459   2.10299
   R37        2.88497   0.01033   0.00000   0.00625   0.00625   2.89122
   R38        2.10385  -0.00828   0.00000  -0.00443  -0.00443   2.09942
   R39        2.10204  -0.01098   0.00000  -0.00586  -0.00586   2.09618
   R40        2.91949  -0.00260   0.00000  -0.00158  -0.00158   2.91791
   R41        2.10806  -0.00949   0.00000  -0.00511  -0.00511   2.10294
   R42        2.88875   0.00506   0.00000   0.00294   0.00294   2.89169
   R43        2.10153  -0.00865   0.00000  -0.00461  -0.00461   2.09691
   R44        2.10185  -0.00828   0.00000  -0.00442  -0.00442   2.09744
   R45        2.09934  -0.00983   0.00000  -0.00522  -0.00522   2.09412
   R46        2.09742  -0.00972   0.00000  -0.00515  -0.00515   2.09227
   R47        2.09800  -0.00929   0.00000  -0.00492  -0.00492   2.09308
   R48        2.89062   0.00577   0.00000   0.00336   0.00336   2.89398
   R49        2.09660  -0.00727   0.00000  -0.00384  -0.00384   2.09275
   R50        2.10338  -0.00940   0.00000  -0.00502  -0.00502   2.09836
   R51        2.09665  -0.00967   0.00000  -0.00512  -0.00512   2.09153
   R52        2.09865  -0.00961   0.00000  -0.00510  -0.00510   2.09355
   R53        2.09747  -0.00917   0.00000  -0.00486  -0.00486   2.09261
   R54        2.86859   0.01143   0.00000   0.00665   0.00665   2.87525
   R55        2.92282  -0.00377   0.00000  -0.00231  -0.00231   2.92051
   R56        2.10871  -0.00859   0.00000  -0.00463  -0.00463   2.10408
   R57        2.10202  -0.00829   0.00000  -0.00442  -0.00442   2.09759
   R58        2.10174  -0.01103   0.00000  -0.00588  -0.00588   2.09586
   R59        2.88788   0.00586   0.00000   0.00340   0.00340   2.89127
   R60        2.10267  -0.00865   0.00000  -0.00462  -0.00462   2.09805
   R61        2.10215  -0.01016   0.00000  -0.00542  -0.00542   2.09672
   R62        2.09697  -0.00968   0.00000  -0.00512  -0.00512   2.09185
   R63        2.09927  -0.00965   0.00000  -0.00512  -0.00512   2.09415
   R64        2.10058  -0.01018   0.00000  -0.00542  -0.00542   2.09517
    A1        1.91195   0.00358   0.00000   0.00401   0.00400   1.91595
    A2        1.92526   0.00193   0.00000   0.00164   0.00164   1.92690
    A3        1.93646   0.00370   0.00000   0.00367   0.00367   1.94013
    A4        1.89272  -0.00266   0.00000  -0.00255  -0.00255   1.89016
    A5        1.88934  -0.00315   0.00000  -0.00258  -0.00259   1.88675
    A6        1.90723  -0.00367   0.00000  -0.00444  -0.00444   1.90279
    A7        1.96043   0.00133   0.00000   0.00204   0.00204   1.96247
    A8        1.90619   0.00010   0.00000   0.00020   0.00021   1.90640
    A9        1.85488   0.00224   0.00000   0.00523   0.00523   1.86010
   A10        1.92646  -0.00124   0.00000  -0.00279  -0.00279   1.92367
   A11        1.91959  -0.00090   0.00000  -0.00020  -0.00021   1.91938
   A12        1.89395  -0.00151   0.00000  -0.00445  -0.00445   1.88950
   A13        2.03906   0.00077   0.00000   0.00138   0.00138   2.04044
   A14        1.93608   0.00174   0.00000   0.00282   0.00283   1.93891
   A15        1.87145  -0.00218   0.00000  -0.00408  -0.00408   1.86737
   A16        1.85312  -0.00169   0.00000  -0.00158  -0.00158   1.85153
   A17        1.87333   0.00064   0.00000   0.00021   0.00021   1.87354
   A18        1.88525   0.00079   0.00000   0.00130   0.00130   1.88654
   A19        1.84762   0.00229   0.00000   0.00107   0.00107   1.84869
   A20        2.00089  -0.00228   0.00000  -0.00095  -0.00095   1.99994
   A21        1.85695   0.00029   0.00000   0.00019   0.00019   1.85713
   A22        2.04642  -0.00041   0.00000  -0.00038  -0.00038   2.04604
   A23        1.85411  -0.00032   0.00000   0.00038   0.00038   1.85449
   A24        1.84442   0.00054   0.00000  -0.00019  -0.00019   1.84423
   A25        2.00102   0.00120   0.00000   0.00199   0.00198   2.00301
   A26        1.79611  -0.00001   0.00000  -0.00023  -0.00023   1.79588
   A27        1.93969  -0.00079   0.00000  -0.00251  -0.00251   1.93718
   A28        1.98634  -0.00041   0.00000   0.00010   0.00010   1.98644
   A29        1.90244  -0.00194   0.00000  -0.00476  -0.00476   1.89768
   A30        1.82966   0.00216   0.00000   0.00603   0.00604   1.83569
   A31        2.04450   0.00010   0.00000   0.00092   0.00091   2.04541
   A32        1.89097  -0.00163   0.00000  -0.00251  -0.00252   1.88845
[...]
     48          1           0        5.473068   -1.421846    1.950703
     49          1           0        4.897653   -2.654022    3.078267
     50          1           0        2.665988    2.777439   -1.813237
     51          1           0        3.359643    2.845453   -0.202761
     52          1           0        5.566608    2.028555   -1.114718
     53          1           0        4.850795    1.882903   -2.724050
     54          1           0        5.030109    3.474306   -1.975318
     55          1           0       -2.767916    0.250153    2.181002
     56          1           0       -4.016851    0.770765   -0.545236
     57          1           0       -4.768180   -0.027750    0.828382
     58          1           0       -2.082506    2.665743    2.010903
     59          1           0       -3.060266    2.818626    0.560520
     60          1           0       -5.127221    2.220582    1.872104
     61          1           0       -4.306037    3.614452    2.580511
     62          1           0       -4.145434    2.019643    3.327811
 ---------------------------------------------------------------------
 Rotational constants (GHZ):           0.3886404           0.1429725           0.1327002

 **********************************************************************

            Population analysis using the SCF Density.

 **********************************************************************

 Orbital symmetries:
       Occupied  (A) (A) (A) (A) (A) (A) (A) (A) (A) (A) (A) (A)
                 (A) (A) (A) (A) (A) (A) (A) (A) (A) (A) (A) (A)
                 (A) (A) (A) (A) (A) (A) (A) (A) (A) (A) (A) (A)
                 (A) (A) (A) (A) (A) (A) (A) (A) (A) (A) (A) (A)
                 (A) (A) (A) (A) (A) (A) (A) (A) (A) (A) (A) (A)
                 (A) (A) (A) (A) (A) (A) (A) (A) (A) (A) (A) (A)
                 (A) (A) (A) (A) (A) (A) (A) (A) (A) (A) (A) (A)
                 (A) (A)
       Virtual   (A) (A) (A) (A) (A) (A) (A) (A) (A) (A) (A) (A)
                 (A) (A) (A) (A) (A) (A) (A) (A) (A) (A) (A) (A)
                 (A) (A) (A) (A) (A) (A) (A) (A) (A) (A) (A) (A)
                 (A) (A) (A) (A) (A) (A) (A) (A) (A) (A) (A) (A)
                 (A) (A) (A) (A) (A) (A) (A) (A) (A) (A) (A) (A)
                 (A) (A) (A) (A) (A) (A) (A) (A) (A) (A) (A) (A)
                 (A) (A) (A) (A) (A) (A) (A) (A) (A) (A) (A) (A)
                 (A) (A) (A) (A) (A) (A) (A) (A) (A) (A) (A) (A)
                 (A) (A) (A) (A) (A) (A) (A) (A) (A) (A) (A) (A)
                 (A) (A) (A) (A) (A) (A) (A) (A) (A) (A) (A) (A)
                 (A) (A) (A) (A) (A) (A) (A) (A) (A) (A) (A) (A)
                 (A) (A) (A) (A) (A) (A) (A) (A) (A) (A) (A) (A)
                 (A) (A) (A) (A) (A) (A) (A) (A) (A) (A) (A) (A)
                 (A) (A) (A) (A) (A) (A) (A) (A) (A) (A) (A) (A)
                 (A) (A) (A) (A) (A) (A) (A) (A) (A) (A) (A) (A)
                 (A) (A) (A) (A) (A) (A) (A) (A) (A) (A) (A) (A)
                 (A) (A) (A) (A) (A) (A) (A) (A) (A) (A) (A) (A)
                 (A) (A) (A) (A) (A) (A) (A) (A) (A) (A) (A) (A)
                 (A) (A) (A) (A) (A) (A) (A) (A) (A) (A) (A) (A)
                 (A) (A) (A) (A) (A) (A) (A) (A) (A) (A) (A) (A)
                 (A) (A) (A) (A) (A) (A) (A) (A) (A) (A) (A) (A)
                 (A) (A) (A) (A) (A) (A) (A) (A) (A) (A) (A) (A)
                 (A) (A) (A) (A) (A) (A) (A) (A) (A) (A) (A) (A)
                 (A) (A) (A) (A) (A) (A) (A) (A) (A) (A) (A) (A)
                 (A) (A) (A) (A) (A) (A) (A) (A) (A) (A) (A) (A)
                 (A) (A) (A) (A) (A) (A) (A) (A) (A) (A) (A) (A)
                 (A) (A) (A) (A) (A) (A) (A) (A) (A) (A) (A) (A)
                 (A) (A) (A) (A) (A) (A) (A) (A) (A) (A) (A) (A)
                 (A) (A) (A) (A) (A) (A) (A) (A) (A) (A) (A) (A)
                 (A) (A) (A) (A) (A) (A) (A) (A) (A) (A) (A) (A)
                 (A) (A) (A) (A) (A) (A) (A) (A) (A) (A) (A) (A)
                 (A) (A) (A) (A) (A) (A) (A) (A) (A) (A) (A) (A)
                 (A) (A) (A) (A) (A) (A) (A) (A) (A) (A) (A) (A)
                 (A) (A) (A) (A) (A) (A) (A) (A) (A) (A) (A) (A)
                 (A) (A) (A) (A) (A) (A) (A) (A) (A) (A) (A) (A)
                 (A) (A) (A) (A) (A) (A) (A) (A) (A) (A) (A) (A)
                 (A) (A) (A) (A) (A) (A) (A) (A) (A) (A) (A) (A)
 The electronic state is 1-A.
 Alpha  occ. eigenvalues --  -10.17651 -10.17571 -10.17530 -10.17486 -10.17480
 Alpha  occ. eigenvalues --  -10.17457 -10.17454 -10.17450 -10.17428 -10.17427
 Alpha  occ. eigenvalues --  -10.17369 -10.17307 -10.17264 -10.17195 -10.17079
 Alpha  occ. eigenvalues --  -10.17052 -10.16980 -10.16963 -10.16939 -10.16873
 Alpha  occ. eigenvalues --  -10.16803 -10.16709  -0.84751  -0.83581  -0.78347
 Alpha  occ. eigenvalues --   -0.77820  -0.77650  -0.75183  -0.74668  -0.72908
 Alpha  occ. eigenvalues --   -0.70158  -0.69641  -0.66986  -0.66031  -0.62743
 Alpha  occ. eigenvalues --   -0.61944  -0.61813  -0.58601  -0.58083  -0.56606
 Alpha  occ. eigenvalues --   -0.55243  -0.53319  -0.53029  -0.50649  -0.49037
 Alpha  occ. eigenvalues --   -0.46117  -0.45839  -0.45272  -0.44833  -0.43709
 Alpha  occ. eigenvalues --   -0.43637  -0.42375  -0.42156  -0.42027  -0.40971
 Alpha  occ. eigenvalues --   -0.40776  -0.40525  -0.39554  -0.39123  -0.39004
 Alpha  occ. eigenvalues --   -0.38149  -0.37582  -0.36930  -0.36798  -0.36357
 Alpha  occ. eigenvalues --   -0.35932  -0.35322  -0.35013  -0.34226  -0.33868
 Alpha  occ. eigenvalues --   -0.33656  -0.33443  -0.33234  -0.32496  -0.31313
 Alpha  occ. eigenvalues --   -0.30750  -0.30454  -0.30222  -0.30083  -0.29752
 Alpha  occ. eigenvalues --   -0.29652  -0.29306  -0.28915  -0.27917  -0.27564
 Alpha  occ. eigenvalues --   -0.27172
 Alpha virt. eigenvalues --    0.06914   0.08098   0.08743   0.09731   0.09971
 Alpha virt. eigenvalues --    0.10407   0.10726   0.11520   0.12174   0.12734
 Alpha virt. eigenvalues --    0.12947   0.13149   0.13593   0.14781   0.14861
 Alpha virt. eigenvalues --    0.15307   0.15866   0.16122   0.16296   0.16757
 Alpha virt. eigenvalues --    0.16988   0.17154   0.17269   0.17507   0.17881
 Alpha virt. eigenvalues --    0.18184   0.18291   0.18675   0.19077   0.19317
 Alpha virt. eigenvalues --    0.19655   0.19997   0.20139   0.20652   0.21068
 Alpha virt. eigenvalues --    0.21189   0.21786   0.22120   0.22474   0.23307
 Alpha virt. eigenvalues --    0.23483   0.24069   0.24443   0.24685   0.25069
 Alpha virt. eigenvalues --    0.25444   0.26240   0.26585   0.26986   0.27690
 Alpha virt. eigenvalues --    0.27904   0.28187   0.28531   0.29026   0.30107
 Alpha virt. eigenvalues --    0.30701   0.31216   0.32327   0.32633   0.33928
 Alpha virt. eigenvalues --    0.34466   0.36662   0.36892   0.39419   0.48803
 Alpha virt. eigenvalues --    0.50361   0.50868   0.51306   0.51674   0.51983
 Alpha virt. eigenvalues --    0.52789   0.53366   0.53620   0.53829   0.54519
 Alpha virt. eigenvalues --    0.55073   0.55526   0.56563   0.57354   0.57685
 Alpha virt. eigenvalues --    0.58838   0.59377   0.59780   0.60238   0.60669
 Alpha virt. eigenvalues --    0.61925   0.62140   0.62981   0.63888   0.64173
 Alpha virt. eigenvalues --    0.65135   0.65830   0.66433   0.67189   0.67917
 Alpha virt. eigenvalues --    0.68709   0.69215   0.69970   0.70549   0.71115
 Alpha virt. eigenvalues --    0.72535   0.73648   0.75150   0.75811   0.76114
 Alpha virt. eigenvalues --    0.76753   0.77813   0.78491   0.78671   0.79759
 Alpha virt. eigenvalues --    0.80276   0.80549   0.81357   0.81875   0.82406
 Alpha virt. eigenvalues --    0.83662   0.83814   0.84377   0.84747   0.85707
 Alpha virt. eigenvalues --    0.85876   0.86213   0.86446   0.86615   0.87046
 Alpha virt. eigenvalues --    0.87336   0.87752   0.87871   0.88457   0.88626
 Alpha virt. eigenvalues --    0.89181   0.89632   0.89966   0.90364   0.90888
 Alpha virt. eigenvalues --    0.90945   0.91289   0.91671   0.92153   0.92498
 Alpha virt. eigenvalues --    0.93653   0.93892   0.94134   0.94542   0.94773
 Alpha virt. eigenvalues --    0.95430   0.95832   0.96107   0.96588   0.97039
 Alpha virt. eigenvalues --    0.97538   0.99119   0.99220   1.00779   1.01164
 Alpha virt. eigenvalues --    1.01337   1.02034   1.03826   1.04053   1.04533
 Alpha virt. eigenvalues --    1.04959   1.05783   1.06684   1.08059   1.09671
 Alpha virt. eigenvalues --    1.10967   1.12268   1.13988   1.16771   1.17254
 Alpha virt. eigenvalues --    1.20307   1.20968   1.23524   1.25981   1.27099
 Alpha virt. eigenvalues --    1.29613   1.31285   1.31399   1.35199   1.36909
 Alpha virt. eigenvalues --    1.38024   1.39371   1.41559   1.43394   1.46576
 Alpha virt. eigenvalues --    1.47530   1.48081   1.48678   1.49021   1.50167
 Alpha virt. eigenvalues --    1.52019   1.53246   1.54670   1.56567   1.57398
 Alpha virt. eigenvalues --    1.57529   1.61412   1.61710   1.63196   1.63593
 Alpha virt. eigenvalues --    1.65276   1.66332   1.66458   1.67482   1.67554
 Alpha virt. eigenvalues --    1.68674   1.69678   1.70007   1.72584   1.73217
 Alpha virt. eigenvalues --    1.74060   1.75367   1.76522   1.77340   1.78799
 Alpha virt. eigenvalues --    1.79420   1.79890   1.81195   1.82018   1.82637
 Alpha virt. eigenvalues --    1.83823   1.84793   1.85921   1.86285   1.86910
 Alpha virt. eigenvalues --    1.87241   1.87823   1.88346   1.89073   1.90148
 Alpha virt. eigenvalues --    1.90627   1.91374   1.91559   1.93219   1.93554
 Alpha virt. eigenvalues --    1.94432   1.96249   1.96958   1.97728   1.98573
 Alpha virt. eigenvalues --    1.98818   1.99806   2.00012   2.01881   2.02581
 Alpha virt. eigenvalues --    2.03653   2.04398   2.05241   2.05717   2.05860
 Alpha virt. eigenvalues --    2.05877   2.06219   2.06879   2.06994   2.08329
 Alpha virt. eigenvalues --    2.08411   2.08706   2.09076   2.09638   2.10132
 Alpha virt. eigenvalues --    2.10424   2.11248   2.11664   2.12333   2.12628
 Alpha virt. eigenvalues --    2.13009   2.14064   2.14328   2.15743   2.16153
 Alpha virt. eigenvalues --    2.16938   2.17985   2.18656   2.19133   2.21799
 Alpha virt. eigenvalues --    2.22337   2.23322   2.24635   2.25207   2.25844
 Alpha virt. eigenvalues --    2.26362   2.27187   2.27630   2.27829   2.28396
 Alpha virt. eigenvalues --    2.29122   2.29691   2.29959   2.30269   2.31912
 Alpha virt. eigenvalues --    2.32293   2.32590   2.33986   2.35406   2.36571
 Alpha virt. eigenvalues --    2.37270   2.38591   2.39080   2.39680   2.41306
 Alpha virt. eigenvalues --    2.41468   2.41923   2.44587   2.45391   2.46246
 Alpha virt. eigenvalues --    2.46909   2.47824   2.48560   2.48808   2.49258
 Alpha virt. eigenvalues --    2.49995   2.50871   2.52158   2.52699   2.54667
 Alpha virt. eigenvalues --    2.55808   2.57501   2.58312   2.58633   2.58898
 Alpha virt. eigenvalues --    2.59926   2.60920   2.61589   2.61774   2.62808
 Alpha virt. eigenvalues --    2.63112   2.65415   2.66071   2.67369   2.68386
 Alpha virt. eigenvalues --    2.69747   2.69967   2.70420   2.71539   2.72183
 Alpha virt. eigenvalues --    2.72521   2.73485   2.74047   2.74426   2.75350
 Alpha virt. eigenvalues --    2.75588   2.76083   2.76966   2.77722   2.78504
 Alpha virt. eigenvalues --    2.79364   2.80100   2.80728   2.81084   2.81650
 Alpha virt. eigenvalues --    2.82094   2.82736   2.83584   2.84482   2.85587
 Alpha virt. eigenvalues --    2.85704   2.86965   2.87298   2.88392   2.88932
 Alpha virt. eigenvalues --    2.89680   2.90164   2.90347   2.90757   2.91492
 Alpha virt. eigenvalues --    2.91768   2.91919   2.92715   2.92832   2.93289
 Alpha virt. eigenvalues --    2.93576   2.93725   2.94205   2.96117   2.97330
 Alpha virt. eigenvalues --    2.98575   2.99298   3.00133   3.03739   3.05165
 Alpha virt. eigenvalues --    3.08134   3.10462   3.19351   3.19904   3.20557
 Alpha virt. eigenvalues --    3.21038   3.24071   3.27178   3.28983   3.29724
 Alpha virt. eigenvalues --    3.30750   3.31299   3.32707   3.33537   3.34867
 Alpha virt. eigenvalues --    3.35665   3.36351   3.36642   3.37116   3.39574
 Alpha virt. eigenvalues --    3.42006   3.42773   3.44855   3.45388   3.46218
 Alpha virt. eigenvalues --    3.46267   3.46461   3.47157   3.48449   3.48866
 Alpha virt. eigenvalues --    3.49845   3.50654   3.52869   3.53725   3.54358
 Alpha virt. eigenvalues --    3.54848   3.55836   3.56150   3.57418   3.57720
 Alpha virt. eigenvalues --    3.58991   3.60344   4.20381   4.28581   4.33142
 Alpha virt. eigenvalues --    4.35015   4.36405   4.42457   4.45914   4.48595
 Alpha virt. eigenvalues --    4.49218   4.52900   4.57500   4.58084   4.64387
 Alpha virt. eigenvalues --    4.65572   4.69122   4.71593   4.77601   4.79586
 Alpha virt. eigenvalues --    4.85146   4.88198   4.92605   4.99404
          Condensed to atoms (all electrons):
 Mulliken charges:
               1
     1  C   -0.323078
     2  C   -0.175198
     3  C   -0.060615
     4  C   -0.052533
     5  C   -0.065501
     6  C   -0.185377
     7  C   -0.189461
     8  C   -0.052352
     9  C   -0.058447
    10  C   -0.192982
    11  C   -0.195295
    12  C   -0.063034
    13  C   -0.180706
    14  C   -0.060030
    15  C   -0.176425
    16  C   -0.321467
    17  C   -0.171678
    18  C   -0.320812
    19  C   -0.065399
    20  C   -0.181954
    21  C   -0.175815
    22  C   -0.322520
    23  H    0.097416
    24  H    0.099721
    25  H    0.105886
    26  H    0.089595
    27  H    0.090582
    28  H    0.076477
    29  H    0.074967
    30  H    0.077966
    31  H    0.092807
    32  H    0.084425
    33  H    0.090569
    34  H    0.084105
    35  H    0.070734
    36  H    0.081249
    37  H    0.085545
    38  H    0.089886
    39  H    0.086412
    40  H    0.096489
    41  H    0.072820
    42  H    0.080868
    43  H    0.090252
    44  H    0.077189
    45  H    0.086700
    46  H    0.088507
    47  H    0.100863
    48  H    0.105842
    49  H    0.098144
    50  H    0.090437
    51  H    0.085677
    52  H    0.105317
    53  H    0.100766
    54  H    0.097837
    55  H    0.074056
    56  H    0.087202
    57  H    0.090719
    58  H    0.087150
    59  H    0.091983
    60  H    0.105426
    61  H    0.097743
    62  H    0.100351
 Sum of Mulliken charges =  -0.00000
 Mulliken charges with hydrogens summed into heavy atoms:
               1
     1  C   -0.020054
     2  C    0.004978
     3  C    0.015862
     4  C    0.022434
     5  C    0.012465
     6  C   -0.008144
     7  C   -0.014787
     8  C    0.018381
     9  C    0.022802
    10  C   -0.017550
    11  C   -0.012394
    12  C    0.009787
    13  C   -0.009585
    14  C    0.017159
    15  C   -0.001218
    16  C   -0.016618
    17  C    0.004436
    18  C   -0.016893
    19  C    0.008657
    20  C   -0.004033
    21  C    0.003318
    22  C   -0.019001
 Electronic spatial extent (au):  <R**2>=           9443.5909
 Charge=              0.0000 electrons
 Dipole moment (field-independent basis, Debye):
    X=              0.0469    Y=             -0.0332    Z=              0.0398  Tot=              0.0699
 Quadrupole moment (field-independent basis, Debye-Ang):
   XX=           -145.1189   YY=           -142.5645   ZZ=           -142.4901
   XY=              0.1849   XZ=             -0.2047   YZ=             -0.0946
 Traceless Quadrupole moment (field-independent basis, Debye-Ang):
   XX=             -1.7277   YY=              0.8267   ZZ=              0.9011
   XY=              0.1849   XZ=             -0.2047   YZ=             -0.0946
 Octapole moment (field-independent basis, Debye-Ang**2):
  XXX=              1.0760  YYY=             -0.3540  ZZZ=             -0.3122  XYY=             -0.8892
  XXY=              0.2857  XXZ=              0.2118  XZZ=              0.6221  YZZ=             -0.8093
  YYZ=              0.1860  XYZ=              4.6625
 Hexadecapole moment (field-independent basis, Debye-Ang**3):
 XXXX=          -9049.1075 YYYY=          -2483.5334 ZZZZ=          -1709.2332 XXXY=             -1.6923
 XXXZ=             -8.9701 YYYX=              6.5814 YYYZ=             -2.2885 ZZZX=              6.0216
 ZZZY=             -1.8235 XXYY=          -1918.3290 XXZZ=          -1790.6161 YYZZ=           -703.5878
 XXYZ=             -1.3200 YYXZ=             -1.4057 ZZXY=              2.9291
 N-N= 1.995529500281D+03 E-N=-5.984081699284D+03  KE= 8.538962649981D+02
 Unable to Open any file for archive entry.
 1\1\GINC-HPCS04\FOpt\RB3LYP\6-31G(d,p)\C22H40\Z002445\09-Dec-2025\0\\#
  opt=(maxstep=5) B3LYP/6-31G** SCF=(XQC,MaxCycle=200,noincore) Int=(Gr
 id=UltraFine)\\m2g_ROMP_twistboat\\0,1\C,5.1059137937,-1.9076065066,1.
 5230821626\C,3.594352256,-1.7083214696,1.3568686846\C,3.2037764227,-1.
 2319696831,-0.0547403508\C,1.6563544276,-1.0944858888,-0.3632159855\C,
 1.391334384,0.4331905602,-0.5167079733\C,0.997879685,1.196195519,0.767
 2072218\C,-0.3729085218,0.8600439756,1.4095719545\C,-1.527162103,0.607
 2026319,0.4283066281\C,-1.509685108,-0.7508941768,-0.3579762892\C,-0.7
 657758307,-1.9516160613,0.2720040923\C,0.7482646979,-1.8788962965,0.59
 44353991\C,-2.9382086199,0.6763104955,1.0666341679\C,-3.8252022596,0.0
 650418997,-0.0300095689\C,-3.0162217011,-1.1287824855,-0.5728102145\C,
 -3.3454466916,-1.5205772447,-2.0202887029\C,-4.7848741374,-2.003175233
 ,-2.2285389671\C,-3.3706040011,2.0760199173,1.5230089688\C,-4.75021246
 1,2.1201634273,2.1908998188\C,2.7194192474,0.9205216545,-1.1624921349\
 C,3.8057049137,0.1612806985,-0.3827568176\C,2.9254620561,2.4373709203,
 -1.2653489149\C,4.1381230399,2.8354972231,-2.1157694625\H,5.3479441176
 ,-2.2721920327,2.5268330296\H,5.4868667011,-2.6410329939,0.8026109383\
 H,5.659593596,-0.9759125759,1.3680562433\H,3.2412868887,-0.9853970633,
 2.1049806592\H,3.0933446848,-2.6555663576,1.5862490311\H,3.6130621777,
 -1.9726534285,-0.7554015281\H,1.5108222019,-1.5202993303,-1.3666478421
 \H,0.5884312487,0.5994462163,-1.2416354673\H,0.9783844004,2.2625112119
 ,0.5117670511\H,1.7772982353,1.0909097446,1.5333517632\H,-0.2928513306
 ,0.0101264912,2.093235337\H,-0.6383189278,1.7126616169,2.0468131839\H,
 -1.4999361266,1.4105261766,-0.3259936675\H,-1.0624412253,-0.5775257982
 ,-1.3426962063\H,-1.2832581056,-2.2429340205,1.1965355748\H,-0.9256060
 323,-2.7905378712,-0.4197575668\H,1.1069773301,-2.9159873537,0.6255708
 363\H,0.892439917,-1.5023497566,1.6100245567\H,-2.9552563642,0.0062532
 011,1.942314616\H,-3.9766305288,0.8122368129,-0.8242086743\H,-4.817136
 8124,-0.2274338449,0.327807288\H,-3.2398137598,-1.9979924289,0.0636633
 421\H,-3.1491683404,-0.6591761514,-2.6745768006\H,-2.6524081379,-2.309
 9766329,-2.3421287927\H,-5.0050079852,-2.8725514433,-1.5980801935\H,-5
 .5114020008,-1.2226804403,-1.9792703057\H,-4.9589683773,-2.2957898967,
 -3.2692364316\H,-2.6294587256,2.4794395188,2.2242572765\H,-3.363061105
 1,2.7484239187,0.6529866414\H,-5.5433486351,1.8051882264,1.5052399089\
 H,-4.7873005926,1.4595182027,3.0648737064\H,-4.9917187611,3.1324712481
 ,2.5312446615\H,2.7143263875,0.525190325,-2.190864967\H,4.0282164997,0
 .7008729017,0.5488580017\H,4.7486118914,0.0906797351,-0.9335865312\H,2
 .0232988409,2.8939292608,-1.695533568\H,3.0360332519,2.8666238385,-0.2
 614396055\H,5.072342089,2.456889876,-1.6882452324\H,4.2280773125,3.924
 0855256,-2.1918427118\H,4.0556506134,2.4371914946,-3.1336912711\\Versi
 on=ES64L-G16RevC.02\State=1-A\HF=-862.5055677\RMSD=5.533e-09\RMSF=2.50
 3e-06\Dipole=-0.0187634,-0.0110921,-0.0167491\Quadrupole=-1.2897002,0.
 5958098,0.6938904,-0.1290343,-0.1214888,0.0628764\PG=C01 [X(C22H40)]\\
 @
 The archive entry for this job was punched.


 LIVE PURE, SPEAK TRUE, RIGHT WRONG, FOLLOW THE KING...
 ELSE, WHEREFORE BORN......
           IDYLLS OF THE KING, TENNYSON
 Job cpu time:       0 days  2 hours  6 minutes  5.1 seconds.
 Elapsed time:       0 days  0 hours  4 minutes 26.8 seconds.
 File lengths (MBytes):  RWF=    180 Int=      0 D2E=      0 Chk=     25 Scr=      1
 Normal termination of Gaussian 16 at Tue Dec  9 15:58:53 2025.
